 Gaussian 16, Revision C.01,
 Gaussian 16:  ES64L-G16RevC.01  3-Jul-2019

 -----------------------------------------
 #P CCSD/aug-cc-pVTZ scf(maxcycle=200) opt
 -----------------------------------------

 ---------
 Water opt
 ---------
 Symbolic Z-matrix:
 Charge =  0 Multiplicity = 1

 SCF Done:  E(RHF) =  -75.9321710801     A.U. after   11 cycles
 E2 =    -0.2933790862D+00 EUMP2 =    -0.76225550166254D+02
 SCF Done:  E(RHF) =  -75.9909289843     A.U. after   10 cycles
 E2 =    -0.2843578568D+00 EUMP2 =    -0.76275286841147D+02
 SCF Done:  E(RHF) =  -76.0600557925     A.U. after   10 cycles
 E2 =    -0.2684036807D+00 EUMP2 =    -0.76328459473262D+02
 SCF Done:  E(RHF) =  -76.0595355748     A.U. after    9 cycles
 E2 =    -0.2682275245D+00 EUMP2 =    -0.76327763099293D+02
 SCF Done:  E(RHF) =  -76.0600107593     A.U. after    8 cycles
 E2 =    -0.2689531984D+00 EUMP2 =    -0.76328963957783D+02
 SCF Done:  E(RHF) =  -76.0605344557     A.U. after    8 cycles
 E2 =    -0.2684390017D+00 EUMP2 =    -0.76328973457469D+02
 SCF Done:  E(RHF) =  -76.0604973331     A.U. after    7 cycles
 E2 =    -0.2684818292D+00 EUMP2 =    -0.76328979162273D+02
 Optimization completed.
    -- Stationary point found.

                         Standard orientation:
 ---------------------------------------------------------------------
 Center     Atomic      Atomic             Coordinates (Angstroms)
 Number     Number       Type             X           Y           Z
 ---------------------------------------------------------------------
      1          8           0        0.000000    0.117510    0.000000
      2          1           0        0.757697   -0.470032   -0.000000
      3          1           0       -0.757697   -0.470050    0.000000
 ---------------------------------------------------------------------

 The electronic state is 1-A'.
 Alpha  occ. eigenvalues --  -20.56751  -1.35286  -0.71679  -0.58484  -0.51026
 Alpha virt. eigenvalues --    0.02942   0.04768   0.13594   0.15861   0.17518
 Alpha virt. eigenvalues --    0.18300   0.22746   0.24500   0.26530   0.30045
 Alpha virt. eigenvalues --    0.31042   0.36582   0.43786   0.46652   0.59953

 Mulliken charges:
               1
     1  O   -0.440738
     2  H    0.220364
     3  H    0.220374
 Sum of Mulliken charges =  -0.00000

 Dipole moment (field-independent basis, Debye):
    X=              0.0000    Y=             -1.9854    Z=              0.0000  Tot=              1.9854
 Quadrupole moment (field-independent basis, Debye-Ang):
   XX=             -4.2458   YY=             -6.2424   ZZ=             -7.5615
   XY=              0.0000   XZ=              0.0000   YZ=              0.0000

 1\1\GINC-NODE57\FOpt\RCCSD-FC\Aug-CC-pVTZ\H2O1\TOEPFER\07-Feb-2023\0\\
 #P CCSD/aug-cc-pVTZ scf(maxcycle=200) opt\\Water opt\\0,1\O,0.00274633
 42,0.,0.0393024116\H,0.1482758303,0.,0.9870007133\H,0.8843778355,0.,-0
 .3376031249\\Version=ES64L-G16RevC.01\State=1-A'\HF=-76.0604973\MP2=-7
 6.3289792\MP3=-76.3316353\MP4D=-76.3363211\MP4DQ=-76.3322612\MP4SDQ=-7
 6.3341499\CCSD=-76.3336701\RMSD=2.651e-09\RMSF=1.227e-05\Dipole=0.6406
 901,0.,0.3560336\PG=CS [SG(H2O1)]\\@
 The archive entry for this job was punched.

 Normal termination of Gaussian 16 at Tue Feb  7 18:44:09 2023.
