 Gaussian 16, Revision C.01,
 Gaussian 16:  ES64L-G16RevC.01  3-Jul-2019

 ------------------------------
 #P HF/6-31g* scf(maxcycle=200)
 ------------------------------

 --------------
 Gaussian input
 --------------
 Symbolic Z-matrix:
 Charge =  0 Multiplicity = 1

                         Standard orientation:
 ---------------------------------------------------------------------
 Center     Atomic      Atomic             Coordinates (Angstroms)
 Number     Number       Type             X           Y           Z
 ---------------------------------------------------------------------
      1          8           0        0.000000    0.000000    0.118732
      2          1           0       -0.000000    0.688368   -0.474927
      3          1           0       -0.000000   -0.688368   -0.474927
 ---------------------------------------------------------------------

 SCF Done:  E(RHF) =  -76.0052042964     A.U. after   10 cycles

 The electronic state is 1-A1.
 Alpha  occ. eigenvalues --  -20.55376  -1.37456  -0.72124  -0.59286  -0.50385
 Alpha virt. eigenvalues --    0.21849   0.31668   1.01762   1.13368   1.16605
 Alpha virt. eigenvalues --    1.26265   1.39644   1.45861   1.98970   2.02759
 Alpha virt. eigenvalues --    2.05161   2.69135   3.01496   3.98327

 Mulliken charges:
               1
     1  O   -0.854731
     2  H    0.427366
     3  H    0.427366
 Sum of Mulliken charges =   0.00000

 Dipole moment (field-independent basis, Debye):
    X=             -0.0000    Y=             -0.0000    Z=             -2.2813  Tot=              2.2813
 Quadrupole moment (field-independent basis, Debye-Ang):
   XX=             -7.1259   YY=             -4.4814   ZZ=             -5.8018
   XY=              0.0000   XZ=              0.0000   YZ=              0.0000

 Normal termination of Gaussian 16 at Wed Feb  8 15:04:47 2023.
