 Gaussian 16, Revision C.01,
 Gaussian 16:  ES64L-G16RevC.01  3-Jul-2019

 ------------------------------
 #P HF/6-31g* scf(maxcycle=200)
 ------------------------------

 --------------
 Gaussian input
 --------------
 Symbolic Z-matrix:
 Charge =  0 Multiplicity = 1

                         Standard orientation:
 ---------------------------------------------------------------------
 Center     Atomic      Atomic             Coordinates (Angstroms)
 Number     Number       Type             X           Y           Z
 ---------------------------------------------------------------------
      1          8           0        0.000000    0.000000    0.137445
      2          1           0        0.000000    0.668881   -0.549780
      3          1           0       -0.000000   -0.668881   -0.549780
 ---------------------------------------------------------------------

 SCF Done:  E(RHF) =  -76.0016832598     A.U. after   10 cycles

 The electronic state is 1-A1.
 Alpha  occ. eigenvalues --  -20.56874  -1.35606  -0.67264  -0.60449  -0.50384
 Alpha virt. eigenvalues --    0.20496   0.30202   0.96801   1.12661   1.16363
 Alpha virt. eigenvalues --    1.21231   1.36807   1.49463   1.98824   2.04741
 Alpha virt. eigenvalues --    2.04899   2.67217   2.87177   3.93514

 Mulliken charges:
               1
     1  O   -0.839198
     2  H    0.419599
     3  H    0.419599
 Sum of Mulliken charges =   0.00000

 Dipole moment (field-independent basis, Debye):
    X=             -0.0000    Y=              0.0000    Z=             -2.4881  Tot=              2.4881
 Quadrupole moment (field-independent basis, Debye-Ang):
   XX=             -7.2349   YY=             -4.8812   ZZ=             -5.5310
   XY=              0.0000   XZ=              0.0000   YZ=             -0.0000

 Normal termination of Gaussian 16 at Wed Feb  8 15:06:05 2023.
