 Gaussian 16, Revision C.01,
 Gaussian 16:  ES64L-G16RevC.01  3-Jul-2019

 -----------------------------------
 #P HF/aug-cc-pVDZ scf(maxcycle=200)
 -----------------------------------

 --------------
 Gaussian input
 --------------
 Symbolic Z-matrix:
 Charge =  0 Multiplicity = 1

                         Standard orientation:
 ---------------------------------------------------------------------
 Center     Atomic      Atomic             Coordinates (Angstroms)
 Number     Number       Type             X           Y           Z
 ---------------------------------------------------------------------
      1          8           0        0.000000    0.133701    0.000000
      2          1           0        0.721544   -0.498007    0.000000
      3          1           0       -0.721544   -0.571604    0.000000
 ---------------------------------------------------------------------

 SCF Done:  E(RHF) =  -76.0347113859     A.U. after   10 cycles

 The electronic state is 1-A'.
 Alpha  occ. eigenvalues --  -20.58594  -1.35106  -0.68530  -0.60000  -0.51028
 Alpha virt. eigenvalues --    0.03398   0.05869   0.17306   0.19904   0.22117
 Alpha virt. eigenvalues --    0.23538   0.27777   0.34438   0.38175   0.38937
 Alpha virt. eigenvalues --    0.41602   0.54513   0.63558   0.65952   0.77835

 Mulliken charges:
               1
     1  O   -0.341455
     2  H    0.145126
     3  H    0.196330
 Sum of Mulliken charges =  -0.00000

 Dipole moment (field-independent basis, Debye):
    X=              0.0290    Y=             -2.1786    Z=              0.0000  Tot=              2.1788
 Quadrupole moment (field-independent basis, Debye-Ang):
   XX=             -4.6852   YY=             -5.9525   ZZ=             -7.6332
   XY=              0.1086   XZ=              0.0000   YZ=              0.0000

 Normal termination of Gaussian 16 at Mon Feb 20 10:28:17 2023.
