 Gaussian 16, Revision C.01,
 Gaussian 16:  ES64L-G16RevC.01  3-Jul-2019

 ---------------------------------
 #P B3LYP/6-31g* scf(maxcycle=200)
 ---------------------------------

 --------------
 Gaussian input
 --------------
 Symbolic Z-matrix:
 Charge =  0 Multiplicity = 1

                         Standard orientation:
 ---------------------------------------------------------------------
 Center     Atomic      Atomic             Coordinates (Angstroms)
 Number     Number       Type             X           Y           Z
 ---------------------------------------------------------------------
      1          8           0        0.000000    0.000000    0.122709
      2          1           0       -0.000000    0.737052   -0.490835
      3          1           0       -0.000000   -0.737052   -0.490835
 ---------------------------------------------------------------------

 SCF Done:  E(RB3LYP) =  -76.4084298310     A.U. after    9 cycles

 The electronic state is 1-A1.
 Alpha  occ. eigenvalues --  -19.13812  -1.00510  -0.51512  -0.37949  -0.29297
 Alpha virt. eigenvalues --    0.06457   0.15086   0.76514   0.87433   0.88995
 Alpha virt. eigenvalues --    0.90349   1.06555   1.20704   1.71747   1.74675
 Alpha virt. eigenvalues --    1.77440   2.29391   2.58608   3.55079

 Mulliken charges:
               1
     1  O   -0.770967
     2  H    0.385483
     3  H    0.385483
 Sum of Mulliken charges =   0.00000

 Dipole moment (field-independent basis, Debye):
    X=             -0.0000    Y=             -0.0000    Z=             -2.1405  Tot=              2.1405
 Quadrupole moment (field-independent basis, Debye-Ang):
   XX=             -7.1859   YY=             -4.4422   ZZ=             -5.9046
   XY=              0.0000   XZ=              0.0000   YZ=              0.0000

 Normal termination of Gaussian 16 at Wed Feb  8 14:51:15 2023.
