 Gaussian 16, Revision C.01,
 Gaussian 16:  ES64L-G16RevC.01  3-Jul-2019

 ------------------------------------
 #P wB97XD/6-311g** scf(maxcycle=200)
 ------------------------------------

 --------------
 Gaussian input
 --------------
 Symbolic Z-matrix:
 Charge =  0 Multiplicity = 1

                         Standard orientation:
 ---------------------------------------------------------------------
 Center     Atomic      Atomic             Coordinates (Angstroms)
 Number     Number       Type             X           Y           Z
 ---------------------------------------------------------------------
      1          8           0        0.000000    0.000000    0.097141
      2          1           0       -0.000000    0.884405   -0.388563
      3          1           0       -0.000000   -0.884405   -0.388563
 ---------------------------------------------------------------------

 SCF Done:  E(RwB97XD) =  -76.4098653494     A.U. after   12 cycles

 The electronic state is 1-A1.
 Alpha  occ. eigenvalues --  -19.22250  -1.06921  -0.61589  -0.42381  -0.37623
 Alpha virt. eigenvalues --    0.10789   0.18309   0.42834   0.48114   0.85297
 Alpha virt. eigenvalues --    0.85917   0.93630   1.15681   1.30374   1.55349
 Alpha virt. eigenvalues --    1.59653   1.60858   2.02912   2.05199   2.50122

 Mulliken charges:
               1
     1  O   -0.556886
     2  H    0.278443
     3  H    0.278443
 Sum of Mulliken charges =   0.00000

 Dipole moment (field-independent basis, Debye):
    X=             -0.0000    Y=              0.0000    Z=             -1.8160  Tot=              1.8160
 Quadrupole moment (field-independent basis, Debye-Ang):
   XX=             -7.3008   YY=             -3.2770   ZZ=             -6.5303
   XY=              0.0000   XZ=              0.0000   YZ=             -0.0000

 Normal termination of Gaussian 16 at Wed Feb  8 14:43:10 2023.
