 Gaussian 16, Revision C.01,
 Gaussian 16:  ES64L-G16RevC.01  3-Jul-2019

 ---------------------------------
 #P B3LYP/6-31g* scf(maxcycle=200)
 ---------------------------------

 --------------
 Gaussian input
 --------------
 Symbolic Z-matrix:
 Charge =  0 Multiplicity = 1

                         Standard orientation:
 ---------------------------------------------------------------------
 Center     Atomic      Atomic             Coordinates (Angstroms)
 Number     Number       Type             X           Y           Z
 ---------------------------------------------------------------------
      1          8           0        0.000000    0.109487   -0.000000
      2          1           0        0.816810   -0.482883    0.000000
      3          1           0       -0.816810   -0.393009   -0.000000
 ---------------------------------------------------------------------

 SCF Done:  E(RB3LYP) =  -76.4052422275     A.U. after    9 cycles

 The electronic state is 1-A'.
 Alpha  occ. eigenvalues --  -19.13561  -0.98464  -0.52496  -0.35323  -0.28694
 Alpha virt. eigenvalues --    0.05719   0.14587   0.78655   0.82705   0.89325
 Alpha virt. eigenvalues --    0.89371   1.07389   1.16230   1.74346   1.75852
 Alpha virt. eigenvalues --    1.79249   2.27419   2.55190   3.55871

 Mulliken charges:
               1
     1  O   -0.786526
     2  H    0.389494
     3  H    0.397032
 Sum of Mulliken charges =  -0.00000

 Dipole moment (field-independent basis, Debye):
    X=             -0.0448    Y=             -1.9578    Z=              0.0000  Tot=              1.9583
 Quadrupole moment (field-independent basis, Debye-Ang):
   XX=             -3.8701   YY=             -6.2101   ZZ=             -7.2313
   XY=             -0.1496   XZ=              0.0000   YZ=             -0.0000

 Normal termination of Gaussian 16 at Wed Feb  8 14:52:24 2023.
