 Gaussian 16, Revision C.01,
 Gaussian 16:  ES64L-G16RevC.01  3-Jul-2019

 ----------------------------------------
 #P CCSD(T)/aug-cc-pVTZ scf(maxcycle=200)
 ----------------------------------------

 --------------
 Gaussian input
 --------------
 Symbolic Z-matrix:
 Charge =  0 Multiplicity = 1

                         Standard orientation:
 ---------------------------------------------------------------------
 Center     Atomic      Atomic             Coordinates (Angstroms)
 Number     Number       Type             X           Y           Z
 ---------------------------------------------------------------------
      1          8           0        0.000000    0.136200    0.000000
      2          1           0        0.709801   -0.508675    0.000000
      3          1           0       -0.709801   -0.580922    0.000000
 ---------------------------------------------------------------------

 SCF Done:  E(RHF) =  -76.0522968961     A.U. after   10 cycles
 E2 =    -0.2718510268D+00 EUMP2 =    -0.76324147922934D+02
 CCSD(T)
 CCSD(T)= -0.76337391832D+02

 The electronic state is 1-A'.
 Alpha  occ. eigenvalues --  -20.57675  -1.34954  -0.67990  -0.60306  -0.51180
 Alpha virt. eigenvalues --    0.02818   0.04837   0.13359   0.16155   0.17613
 Alpha virt. eigenvalues --    0.18617   0.22087   0.24550   0.26975   0.28754
 Alpha virt. eigenvalues --    0.30359   0.36718   0.42917   0.46090   0.59128

 Mulliken charges:
               1
     1  O   -0.476883
     2  H    0.220798
     3  H    0.256086
 Sum of Mulliken charges =  -0.00000

 Dipole moment (field-independent basis, Debye):
    X=              0.0290    Y=             -2.1952    Z=              0.0000  Tot=              2.1954
 Quadrupole moment (field-independent basis, Debye-Ang):
   XX=             -4.7479   YY=             -5.8673   ZZ=             -7.6014
   XY=              0.1012   XZ=              0.0000   YZ=              0.0000

 .328892\CCSD=-76.3283669\CCSD(T)=-76.3373918\RMSD=4.529e-09\PG=CS [SG(
 Normal termination of Gaussian 16 at Wed Feb  8 13:53:42 2023.
