 Gaussian 16, Revision C.01,
 Gaussian 16:  ES64L-G16RevC.01  3-Jul-2019

 ----------------------------------------
 #P PBE1PBE/aug-cc-pVDZ scf(maxcycle=200)
 ----------------------------------------

 --------------
 Gaussian input
 --------------
 Symbolic Z-matrix:
 Charge =  0 Multiplicity = 1

                         Standard orientation:
 ---------------------------------------------------------------------
 Center     Atomic      Atomic             Coordinates (Angstroms)
 Number     Number       Type             X           Y           Z
 ---------------------------------------------------------------------
      1          8           0        0.000000   -0.000000    0.115098
      2          1           0       -0.000000    0.828791   -0.460391
      3          1           0       -0.000000   -0.828791   -0.460391
 ---------------------------------------------------------------------

 SCF Done:  E(RPBE1PBE) =  -76.3547109061     A.U. after    8 cycles

 The electronic state is 1-A1.
 Alpha  occ. eigenvalues --  -19.23537  -1.02366  -0.54241  -0.39556  -0.32780
 Alpha virt. eigenvalues --   -0.01607   0.02955   0.10991   0.13245   0.13570
 Alpha virt. eigenvalues --    0.15391   0.18887   0.22503   0.28331   0.30897
 Alpha virt. eigenvalues --    0.33602   0.43787   0.50211   0.52201   0.64563

 Mulliken charges:
               1
     1  O   -0.341631
     2  H    0.170815
     3  H    0.170815
 Sum of Mulliken charges =  -0.00000

 Dipole moment (field-independent basis, Debye):
    X=             -0.0000    Y=             -0.0000    Z=             -1.7954  Tot=              1.7954
 Quadrupole moment (field-independent basis, Debye-Ang):
   XX=             -7.8832   YY=             -4.0932   ZZ=             -6.6505
   XY=              0.0000   XZ=              0.0000   YZ=              0.0000

 Normal termination of Gaussian 16 at Mon Mar 20 17:35:50 2023.
