 Gaussian 16, Revision C.01,
 Gaussian 16:  ES64L-G16RevC.01  3-Jul-2019

 ---------------------------------
 #P B3LYP/6-31g* scf(maxcycle=200)
 ---------------------------------

 --------------
 Gaussian input
 --------------
 Symbolic Z-matrix:
 Charge =  0 Multiplicity = 1

                         Standard orientation:
 ---------------------------------------------------------------------
 Center     Atomic      Atomic             Coordinates (Angstroms)
 Number     Number       Type             X           Y           Z
 ---------------------------------------------------------------------
      1          8           0       -0.000000    0.000000    0.137047
      2          1           0        0.000000    0.740632   -0.548187
      3          1           0       -0.000000   -0.740632   -0.548187
 ---------------------------------------------------------------------

 SCF Done:  E(RB3LYP) =  -76.4046587462     A.U. after   10 cycles

 The electronic state is 1-A1.
 Alpha  occ. eigenvalues --  -19.14981  -0.98931  -0.48702  -0.38888  -0.29178
 Alpha virt. eigenvalues --    0.04938   0.13015   0.72922   0.84053   0.88864
 Alpha virt. eigenvalues --    0.89456   1.04870   1.22558   1.71574   1.76119
 Alpha virt. eigenvalues --    1.77510   2.24745   2.47859   3.51527

 Mulliken charges:
               1
     1  O   -0.745830
     2  H    0.372915
     3  H    0.372915
 Sum of Mulliken charges =   0.00000

 Dipole moment (field-independent basis, Debye):
    X=             -0.0000    Y=             -0.0000    Z=             -2.2370  Tot=              2.2370
 Quadrupole moment (field-independent basis, Debye-Ang):
   XX=             -7.2847   YY=             -4.6744   ZZ=             -5.7546
   XY=              0.0000   XZ=              0.0000   YZ=             -0.0000

 Normal termination of Gaussian 16 at Wed Feb  8 14:52:38 2023.
