 Gaussian 16, Revision C.01,
 Gaussian 16:  ES64L-G16RevC.01  3-Jul-2019

 ----------------------------------------
 #P PBE1PBE/aug-cc-pVDZ scf(maxcycle=200)
 ----------------------------------------

 --------------
 Gaussian input
 --------------
 Symbolic Z-matrix:
 Charge =  0 Multiplicity = 1

                         Standard orientation:
 ---------------------------------------------------------------------
 Center     Atomic      Atomic             Coordinates (Angstroms)
 Number     Number       Type             X           Y           Z
 ---------------------------------------------------------------------
      1          8           0        0.000000    0.100788    0.000000
      2          1           0        0.844123   -0.354336    0.000000
      3          1           0       -0.844123   -0.451967    0.000000
 ---------------------------------------------------------------------

 SCF Done:  E(RPBE1PBE) =  -76.3531480052     A.U. after    9 cycles

 The electronic state is 1-A'.
 Alpha  occ. eigenvalues --  -19.22815  -1.02927  -0.56436  -0.38338  -0.32809
 Alpha virt. eigenvalues --   -0.01365   0.03013   0.11163   0.13123   0.13330
 Alpha virt. eigenvalues --    0.15948   0.19771   0.21903   0.28118   0.32902
 Alpha virt. eigenvalues --    0.35236   0.43286   0.50624   0.53308   0.66732

 Mulliken charges:
               1
     1  O   -0.314463
     2  H    0.129310
     3  H    0.185153
 Sum of Mulliken charges =   0.00000

 Dipole moment (field-independent basis, Debye):
    X=              0.0145    Y=             -1.6524    Z=              0.0000  Tot=              1.6524
 Quadrupole moment (field-independent basis, Debye-Ang):
   XX=             -3.8263   YY=             -6.8609   ZZ=             -7.8430
   XY=              0.1964   XZ=              0.0000   YZ=              0.0000

 Normal termination of Gaussian 16 at Wed Mar 29 21:52:51 2023.
