 Gaussian 16, Revision C.01,
 Gaussian 16:  ES64L-G16RevC.01  3-Jul-2019

 ---------------------------------
 #P B3LYP/6-31g* scf(maxcycle=200)
 ---------------------------------

 --------------
 Gaussian input
 --------------
 Symbolic Z-matrix:
 Charge =  0 Multiplicity = 1

                         Standard orientation:
 ---------------------------------------------------------------------
 Center     Atomic      Atomic             Coordinates (Angstroms)
 Number     Number       Type             X           Y           Z
 ---------------------------------------------------------------------
      1          8           0        0.000000    0.142189    0.000000
      2          1           0        0.642020   -0.636201   -0.000000
      3          1           0       -0.642020   -0.501311    0.000000
 ---------------------------------------------------------------------

 SCF Done:  E(RB3LYP) =  -76.3923755880     A.U. after   10 cycles

 The electronic state is 1-A'.
 Alpha  occ. eigenvalues --  -19.14491  -1.02421  -0.48295  -0.41308  -0.29822
 Alpha virt. eigenvalues --    0.05311   0.15054   0.72094   0.87492   0.88647
 Alpha virt. eigenvalues --    0.92956   1.06313   1.25558   1.69520   1.75149
 Alpha virt. eigenvalues --    1.76276   2.33626   2.53980   3.51774

 Mulliken charges:
               1
     1  O   -0.742400
     2  H    0.359332
     3  H    0.383067
 Sum of Mulliken charges =  -0.00000

 Dipole moment (field-independent basis, Debye):
    X=             -0.1127    Y=             -2.3522    Z=             -0.0000  Tot=              2.3549
 Quadrupole moment (field-independent basis, Debye-Ang):
   XX=             -5.1644   YY=             -5.4753   ZZ=             -7.1902
   XY=             -0.1212   XZ=              0.0000   YZ=             -0.0000

 Normal termination of Gaussian 16 at Wed Feb  8 14:51:42 2023.
