 Gaussian 16, Revision C.01,
 Gaussian 16:  ES64L-G16RevC.01  3-Jul-2019

 ----------------------------------------
 #P CCSD(T)/aug-cc-pVTZ scf(maxcycle=200)
 ----------------------------------------

 --------------
 Gaussian input
 --------------
 Symbolic Z-matrix:
 Charge =  0 Multiplicity = 1

                         Standard orientation:
 ---------------------------------------------------------------------
 Center     Atomic      Atomic             Coordinates (Angstroms)
 Number     Number       Type             X           Y           Z
 ---------------------------------------------------------------------
      1          8           0        0.000000    0.131163    0.000000
      2          1           0        0.733064   -0.487140    0.000000
      3          1           0       -0.733064   -0.562161    0.000000
 ---------------------------------------------------------------------

 SCF Done:  E(RHF) =  -76.0546071389     A.U. after   10 cycles
 E2 =    -0.2713185134D+00 EUMP2 =    -0.76325925652349D+02
 CCSD(T)
 CCSD(T)= -0.76339232280D+02

 The electronic state is 1-A'.
 Alpha  occ. eigenvalues --  -20.57519  -1.34649  -0.68813  -0.59521  -0.51068
 Alpha virt. eigenvalues --    0.02850   0.04810   0.13439   0.16099   0.17557
 Alpha virt. eigenvalues --    0.18514   0.22221   0.24494   0.26823   0.29132
 Alpha virt. eigenvalues --    0.30523   0.36624   0.43041   0.46164   0.59341

 Mulliken charges:
               1
     1  O   -0.475201
     2  H    0.219667
     3  H    0.255534
 Sum of Mulliken charges =   0.00000

 Dipole moment (field-independent basis, Debye):
    X=              0.0269    Y=             -2.1344    Z=              0.0000  Tot=              2.1346
 Quadrupole moment (field-independent basis, Debye-Ang):
   XX=             -4.5617   YY=             -5.9953   ZZ=             -7.6063
   XY=              0.1127   XZ=              0.0000   YZ=              0.0000

 .3307753\CCSD=-76.3302586\CCSD(T)=-76.3392323\RMSD=4.698e-09\PG=CS [SG
 Normal termination of Gaussian 16 at Wed Feb  8 13:54:01 2023.
