 Gaussian 16, Revision C.01,
 Gaussian 16:  ES64L-G16RevC.01  3-Jul-2019

 ------------------------------
 #P HF/6-31g* scf(maxcycle=200)
 ------------------------------

 --------------
 Gaussian input
 --------------
 Symbolic Z-matrix:
 Charge =  0 Multiplicity = 1

                         Standard orientation:
 ---------------------------------------------------------------------
 Center     Atomic      Atomic             Coordinates (Angstroms)
 Number     Number       Type             X           Y           Z
 ---------------------------------------------------------------------
      1          8           0        0.000000    0.094835    0.000000
      2          1           0        0.861015   -0.327461    0.000000
      3          1           0       -0.861015   -0.431220    0.000000
 ---------------------------------------------------------------------

 SCF Done:  E(RHF) =  -75.9984810806     A.U. after   10 cycles

 The electronic state is 1-A'.
 Alpha  occ. eigenvalues --  -20.55300  -1.31463  -0.71911  -0.53004  -0.48752
 Alpha virt. eigenvalues --    0.20174   0.29968   1.01699   1.11276   1.16409
 Alpha virt. eigenvalues --    1.17412   1.37837   1.39912   2.02835   2.07502
 Alpha virt. eigenvalues --    2.09280   2.65321   2.84426   3.98467

 Mulliken charges:
               1
     1  O   -0.905203
     2  H    0.453702
     3  H    0.451501
 Sum of Mulliken charges =  -0.00000

 Dipole moment (field-independent basis, Debye):
    X=              0.0289    Y=             -1.9020    Z=              0.0000  Tot=              1.9022
 Quadrupole moment (field-independent basis, Debye-Ang):
   XX=             -3.2318   YY=             -6.4516   ZZ=             -7.2852
   XY=              0.2159   XZ=              0.0000   YZ=              0.0000

 Normal termination of Gaussian 16 at Wed Feb  8 15:06:41 2023.
