 Gaussian 16, Revision C.01,
 Gaussian 16:  ES64L-G16RevC.01  3-Jul-2019

 ----------------------------------------
 #P PBE1PBE/aug-cc-pVDZ scf(maxcycle=200)
 ----------------------------------------

 --------------
 Gaussian input
 --------------
 Symbolic Z-matrix:
 Charge =  0 Multiplicity = 1

                         Standard orientation:
 ---------------------------------------------------------------------
 Center     Atomic      Atomic             Coordinates (Angstroms)
 Number     Number       Type             X           Y           Z
 ---------------------------------------------------------------------
      1          8           0       -0.000000   -0.000000    0.125774
      2          1           0        0.000000    0.656355   -0.503097
      3          1           0       -0.000000   -0.656355   -0.503097
 ---------------------------------------------------------------------

 SCF Done:  E(RPBE1PBE) =  -76.3485096807     A.U. after    8 cycles

 The electronic state is 1-A1.
 Alpha  occ. eigenvalues --  -19.22640  -1.08259  -0.54638  -0.43924  -0.33981
 Alpha virt. eigenvalues --   -0.01026   0.03590   0.11180   0.13179   0.15142
 Alpha virt. eigenvalues --    0.17596   0.19444   0.26359   0.29240   0.30306
 Alpha virt. eigenvalues --    0.32507   0.47326   0.52710   0.55587   0.62944

 Mulliken charges:
               1
     1  O   -0.108078
     2  H    0.054039
     3  H    0.054039
 Sum of Mulliken charges =   0.00000

 Dipole moment (field-independent basis, Debye):
    X=             -0.0000    Y=             -0.0000    Z=             -2.0029  Tot=              2.0029
 Quadrupole moment (field-independent basis, Debye-Ang):
   XX=             -7.5995   YY=             -5.0284   ZZ=             -6.0636
   XY=              0.0000   XZ=              0.0000   YZ=              0.0000

 Normal termination of Gaussian 16 at Mon Mar 20 17:32:58 2023.
