 Gaussian 16, Revision C.01,
 Gaussian 16:  ES64L-G16RevC.01  3-Jul-2019

 ----------------------------------------
 #P PBE1PBE/aug-cc-pVDZ scf(maxcycle=200)
 ----------------------------------------

 --------------
 Gaussian input
 --------------
 Symbolic Z-matrix:
 Charge =  0 Multiplicity = 1

                         Standard orientation:
 ---------------------------------------------------------------------
 Center     Atomic      Atomic             Coordinates (Angstroms)
 Number     Number       Type             X           Y           Z
 ---------------------------------------------------------------------
      1          8           0        0.000000    0.129284   -0.000000
      2          1           0        0.673660   -0.553258    0.000000
      3          1           0       -0.673660   -0.481014    0.000000
 ---------------------------------------------------------------------

 SCF Done:  E(RPBE1PBE) =  -76.3522958631     A.U. after    8 cycles

 The electronic state is 1-A'.
 Alpha  occ. eigenvalues --  -19.23064  -1.07024  -0.53701  -0.43680  -0.33768
 Alpha virt. eigenvalues --   -0.01210   0.03493   0.11084   0.13227   0.14853
 Alpha virt. eigenvalues --    0.17296   0.18898   0.26007   0.28844   0.30040
 Alpha virt. eigenvalues --    0.32182   0.46921   0.51777   0.55305   0.62103

 Mulliken charges:
               1
     1  O   -0.160676
     2  H    0.103145
     3  H    0.057530
 Sum of Mulliken charges =   0.00000

 Dipole moment (field-independent basis, Debye):
    X=             -0.0300    Y=             -2.0185    Z=              0.0000  Tot=              2.0187
 Quadrupole moment (field-independent basis, Debye-Ang):
   XX=             -5.0056   YY=             -6.0652   ZZ=             -7.6618
   XY=             -0.0980   XZ=             -0.0000   YZ=             -0.0000

 Normal termination of Gaussian 16 at Mon Mar 20 17:33:59 2023.
