 Gaussian 16, Revision C.01,
 Gaussian 16:  ES64L-G16RevC.01  3-Jul-2019

 ---------------------------------
 #P B3LYP/6-31g* scf(maxcycle=200)
 ---------------------------------

 --------------
 Gaussian input
 --------------
 Symbolic Z-matrix:
 Charge =  0 Multiplicity = 1

                         Standard orientation:
 ---------------------------------------------------------------------
 Center     Atomic      Atomic             Coordinates (Angstroms)
 Number     Number       Type             X           Y           Z
 ---------------------------------------------------------------------
      1          8           0        0.000000    0.000000    0.111364
      2          1           0        0.000000    0.718494   -0.445455
      3          1           0       -0.000000   -0.718494   -0.445455
 ---------------------------------------------------------------------

 SCF Done:  E(RB3LYP) =  -76.4015662079     A.U. after    9 cycles

 The electronic state is 1-A1.
 Alpha  occ. eigenvalues --  -19.12731  -1.02494  -0.54213  -0.37495  -0.29575
 Alpha virt. eigenvalues --    0.07845   0.16869   0.80373   0.88512   0.89048
 Alpha virt. eigenvalues --    0.93921   1.08467   1.20091   1.71754   1.73196
 Alpha virt. eigenvalues --    1.77108   2.35472   2.68324   3.58473

 Mulliken charges:
               1
     1  O   -0.782767
     2  H    0.391384
     3  H    0.391384
 Sum of Mulliken charges =   0.00000

 Dipole moment (field-independent basis, Debye):
    X=             -0.0000    Y=              0.0000    Z=             -2.0573  Tot=              2.0573
 Quadrupole moment (field-independent basis, Debye-Ang):
   XX=             -7.0834   YY=             -4.3347   ZZ=             -5.9798
   XY=              0.0000   XZ=              0.0000   YZ=             -0.0000

 Normal termination of Gaussian 16 at Wed Feb  8 14:49:44 2023.
