 Gaussian 16, Revision C.01,
 Gaussian 16:  ES64L-G16RevC.01  3-Jul-2019

 ---------------------------------
 #P B3LYP/6-31g* scf(maxcycle=200)
 ---------------------------------

 --------------
 Gaussian input
 --------------
 Symbolic Z-matrix:
 Charge =  0 Multiplicity = 1

                         Standard orientation:
 ---------------------------------------------------------------------
 Center     Atomic      Atomic             Coordinates (Angstroms)
 Number     Number       Type             X           Y           Z
 ---------------------------------------------------------------------
      1          8           0       -0.000000    0.000000    0.120117
      2          1           0       -0.000000    0.747647   -0.480470
      3          1           0       -0.000000   -0.747647   -0.480470
 ---------------------------------------------------------------------

 SCF Done:  E(RB3LYP) =  -76.4087146615     A.U. after    9 cycles

 The electronic state is 1-A1.
 Alpha  occ. eigenvalues --  -19.13711  -1.00323  -0.51870  -0.37535  -0.29231
 Alpha virt. eigenvalues --    0.06504   0.15131   0.77227   0.87221   0.89043
 Alpha virt. eigenvalues --    0.89901   1.06714   1.19941   1.72327   1.74516
 Alpha virt. eigenvalues --    1.77683   2.29234   2.59152   3.55462

 Mulliken charges:
               1
     1  O   -0.774370
     2  H    0.387185
     3  H    0.387185
 Sum of Mulliken charges =  -0.00000

 Dipole moment (field-independent basis, Debye):
    X=             -0.0000    Y=             -0.0000    Z=             -2.1105  Tot=              2.1105
 Quadrupole moment (field-independent basis, Debye-Ang):
   XX=             -7.1851   YY=             -4.3531   ZZ=             -5.9554
   XY=              0.0000   XZ=              0.0000   YZ=              0.0000

 Normal termination of Gaussian 16 at Wed Feb  8 14:51:10 2023.
