 Gaussian 16, Revision C.01,
 Gaussian 16:  ES64L-G16RevC.01  3-Jul-2019

 ----------------------------------------
 #P PBE1PBE/aug-cc-pVDZ scf(maxcycle=200)
 ----------------------------------------

 --------------
 Gaussian input
 --------------
 Symbolic Z-matrix:
 Charge =  0 Multiplicity = 1

                         Standard orientation:
 ---------------------------------------------------------------------
 Center     Atomic      Atomic             Coordinates (Angstroms)
 Number     Number       Type             X           Y           Z
 ---------------------------------------------------------------------
      1          8           0        0.000000    0.098458    0.000000
      2          1           0        0.792706   -0.441263    0.000000
      3          1           0       -0.792706   -0.346400   -0.000000
 ---------------------------------------------------------------------

 SCF Done:  E(RPBE1PBE) =  -76.3542506629     A.U. after    8 cycles

 The electronic state is 1-A'.
 Alpha  occ. eigenvalues --  -19.22179  -1.05180  -0.58310  -0.39166  -0.33306
 Alpha virt. eigenvalues --   -0.00915   0.03259   0.11464   0.13004   0.14154
 Alpha virt. eigenvalues --    0.16602   0.20545   0.22664   0.28714   0.33241
 Alpha virt. eigenvalues --    0.35621   0.44454   0.52454   0.54510   0.67589

 Mulliken charges:
               1
     1  O   -0.197009
     2  H    0.127179
     3  H    0.069830
 Sum of Mulliken charges =  -0.00000

 Dipole moment (field-independent basis, Debye):
    X=             -0.0174    Y=             -1.6684    Z=              0.0000  Tot=              1.6685
 Quadrupole moment (field-independent basis, Debye-Ang):
   XX=             -4.0614   YY=             -6.7427   ZZ=             -7.7111
   XY=             -0.1810   XZ=              0.0000   YZ=             -0.0000

 Normal termination of Gaussian 16 at Mon Mar 20 17:34:11 2023.
