 Gaussian 16, Revision C.01,
 Gaussian 16:  ES64L-G16RevC.01  3-Jul-2019

 ------------------------------
 #P HF/6-31g* scf(maxcycle=200)
 ------------------------------

 --------------
 Gaussian input
 --------------
 Symbolic Z-matrix:
 Charge =  0 Multiplicity = 1

                         Standard orientation:
 ---------------------------------------------------------------------
 Center     Atomic      Atomic             Coordinates (Angstroms)
 Number     Number       Type             X           Y           Z
 ---------------------------------------------------------------------
      1          8           0        0.000000   -0.000000    0.098416
      2          1           0        0.000000    0.764290   -0.393663
      3          1           0       -0.000000   -0.764290   -0.393663
 ---------------------------------------------------------------------

 SCF Done:  E(RHF) =  -76.0056796486     A.U. after   10 cycles

 The electronic state is 1-A1.
 Alpha  occ. eigenvalues --  -20.54533  -1.35937  -0.75341  -0.55928  -0.49778
 Alpha virt. eigenvalues --    0.22228   0.31586   1.10056   1.12758   1.17008
 Alpha virt. eigenvalues --    1.18015   1.40797   1.41509   2.01298   2.03877
 Alpha virt. eigenvalues --    2.07119   2.71203   3.01824   4.01579

 Mulliken charges:
               1
     1  O   -0.884033
     2  H    0.442016
     3  H    0.442016
 Sum of Mulliken charges =  -0.00000

 Dipole moment (field-independent basis, Debye):
    X=             -0.0000    Y=              0.0000    Z=             -1.9977  Tot=              1.9977
 Quadrupole moment (field-independent basis, Debye-Ang):
   XX=             -7.1240   YY=             -3.8100   ZZ=             -6.2035
   XY=              0.0000   XZ=              0.0000   YZ=             -0.0000

 Normal termination of Gaussian 16 at Wed Feb  8 15:04:49 2023.
