 Gaussian 16, Revision C.01,
 Gaussian 16:  ES64L-G16RevC.01  3-Jul-2019

 ----------------------------------------
 #P CCSD(T)/aug-cc-pVDZ scf(maxcycle=200)
 ----------------------------------------

 --------------
 Gaussian input
 --------------
 Symbolic Z-matrix:
 Charge =  0 Multiplicity = 1

                         Standard orientation:
 ---------------------------------------------------------------------
 Center     Atomic      Atomic             Coordinates (Angstroms)
 Number     Number       Type             X           Y           Z
 ---------------------------------------------------------------------
      1          8           0        0.000000   -0.000000    0.109394
      2          1           0        0.000000    0.787721   -0.437577
      3          1           0       -0.000000   -0.787721   -0.437577
 ---------------------------------------------------------------------

 SCF Done:  E(RHF) =  -76.0406926552     A.U. after   10 cycles
 E2 =    -0.2192064381D+00 EUMP2 =    -0.76259899093271D+02
 CCSD(T)
 CCSD(T)= -0.76272881582D+02

 The electronic state is 1-A1.
 Alpha  occ. eigenvalues --  -20.57475  -1.35156  -0.72949  -0.57367  -0.50754
 Alpha virt. eigenvalues --    0.03587   0.05739   0.17473   0.19609   0.22140
 Alpha virt. eigenvalues --    0.22957   0.29410   0.32242   0.38237   0.41570
 Alpha virt. eigenvalues --    0.44264   0.53287   0.64975   0.65662   0.82723

 Mulliken charges:
               1
     1  O   -0.316235
     2  H    0.158118
     3  H    0.158118
 Sum of Mulliken charges =  -0.00000

 Dipole moment (field-independent basis, Debye):
    X=             -0.0000    Y=              0.0000    Z=             -1.9001  Tot=              1.9001
 Quadrupole moment (field-independent basis, Debye-Ang):
   XX=             -7.6058   YY=             -4.0150   ZZ=             -6.4458
   XY=              0.0000   XZ=              0.0000   YZ=              0.0000

 .2678902\CCSD=-76.2676883\CCSD(T)=-76.2728816\RMSD=5.454e-09\PG=C02V [
 Normal termination of Gaussian 16 at Wed Feb  8 14:49:19 2023.
