 Gaussian 16, Revision C.01,
 Gaussian 16:  ES64L-G16RevC.01  3-Jul-2019

 ------------------------------
 #P HF/6-31g* scf(maxcycle=200)
 ------------------------------

 --------------
 Gaussian input
 --------------
 Symbolic Z-matrix:
 Charge =  0 Multiplicity = 1

                         Standard orientation:
 ---------------------------------------------------------------------
 Center     Atomic      Atomic             Coordinates (Angstroms)
 Number     Number       Type             X           Y           Z
 ---------------------------------------------------------------------
      1          8           0        0.000000    0.117051    0.000000
      2          1           0        0.727232   -0.428307    0.000000
      3          1           0       -0.727232   -0.508101    0.000000
 ---------------------------------------------------------------------

 SCF Done:  E(RHF) =  -76.0084815397     A.U. after   10 cycles

 The electronic state is 1-A'.
 Alpha  occ. eigenvalues --  -20.55682  -1.35682  -0.71599  -0.57945  -0.50050
 Alpha virt. eigenvalues --    0.21456   0.31032   1.02104   1.13516   1.16712
 Alpha virt. eigenvalues --    1.21096   1.39021   1.44330   2.00793   2.02961
 Alpha virt. eigenvalues --    2.06138   2.64712   2.99009   3.97915

 Mulliken charges:
               1
     1  O   -0.862230
     2  H    0.432536
     3  H    0.429694
 Sum of Mulliken charges =  -0.00000

 Dipole moment (field-independent basis, Debye):
    X=              0.0405    Y=             -2.2389    Z=              0.0000  Tot=              2.2393
 Quadrupole moment (field-independent basis, Debye-Ang):
   XX=             -4.2728   YY=             -5.9075   ZZ=             -7.1776
   XY=              0.1208   XZ=              0.0000   YZ=              0.0000

 Normal termination of Gaussian 16 at Wed Feb  8 15:05:12 2023.
