 Gaussian 16, Revision C.01,
 Gaussian 16:  ES64L-G16RevC.01  3-Jul-2019

 ------------------------------------
 #P wB97XD/6-311g** scf(maxcycle=200)
 ------------------------------------

 --------------
 Gaussian input
 --------------
 Symbolic Z-matrix:
 Charge =  0 Multiplicity = 1

                         Standard orientation:
 ---------------------------------------------------------------------
 Center     Atomic      Atomic             Coordinates (Angstroms)
 Number     Number       Type             X           Y           Z
 ---------------------------------------------------------------------
      1          8           0       -0.000000    0.000000    0.120117
      2          1           0       -0.000000    0.747647   -0.480470
      3          1           0       -0.000000   -0.747647   -0.480470
 ---------------------------------------------------------------------

 SCF Done:  E(RwB97XD) =  -76.4232853598     A.U. after   12 cycles

 The electronic state is 1-A1.
 Alpha  occ. eigenvalues --  -19.22700  -1.10441  -0.60653  -0.46679  -0.38694
 Alpha virt. eigenvalues --    0.11857   0.19229   0.46219   0.51393   0.85214
 Alpha virt. eigenvalues --    0.85481   0.95305   1.15660   1.30413   1.35700
 Alpha virt. eigenvalues --    1.53715   1.75864   2.01072   2.15505   2.37731

 Mulliken charges:
               1
     1  O   -0.479674
     2  H    0.239837
     3  H    0.239837
 Sum of Mulliken charges =  -0.00000

 Dipole moment (field-independent basis, Debye):
    X=             -0.0000    Y=             -0.0000    Z=             -2.1231  Tot=              2.1231
 Quadrupole moment (field-independent basis, Debye-Ang):
   XX=             -7.1690   YY=             -4.3068   ZZ=             -5.9776
   XY=              0.0000   XZ=              0.0000   YZ=             -0.0000

 Normal termination of Gaussian 16 at Wed Feb  8 14:41:28 2023.
