 Gaussian 16, Revision C.01,
 Gaussian 16:  ES64L-G16RevC.01  3-Jul-2019

 ------------------------------
 #P HF/6-31g* scf(maxcycle=200)
 ------------------------------

 --------------
 Gaussian input
 --------------
 Symbolic Z-matrix:
 Charge =  0 Multiplicity = 1

                         Standard orientation:
 ---------------------------------------------------------------------
 Center     Atomic      Atomic             Coordinates (Angstroms)
 Number     Number       Type             X           Y           Z
 ---------------------------------------------------------------------
      1          8           0        0.000000   -0.000000    0.121116
      2          1           0        0.000000    0.677902   -0.484466
      3          1           0       -0.000000   -0.677902   -0.484466
 ---------------------------------------------------------------------

 SCF Done:  E(RHF) =  -76.0040289856     A.U. after   10 cycles

 The electronic state is 1-A1.
 Alpha  occ. eigenvalues --  -20.55468  -1.37666  -0.71667  -0.59715  -0.50455
 Alpha virt. eigenvalues --    0.21767   0.31676   1.01025   1.13248   1.16560
 Alpha virt. eigenvalues --    1.26988   1.39515   1.46630   1.98463   2.02950
 Alpha virt. eigenvalues --    2.04911   2.69773   3.00528   3.97869

 Mulliken charges:
               1
     1  O   -0.851587
     2  H    0.425794
     3  H    0.425794
 Sum of Mulliken charges =   0.00000

 Dipole moment (field-independent basis, Debye):
    X=             -0.0000    Y=             -0.0000    Z=             -2.3139  Tot=              2.3139
 Quadrupole moment (field-independent basis, Debye-Ang):
   XX=             -7.1266   YY=             -4.5671   ZZ=             -5.7497
   XY=              0.0000   XZ=              0.0000   YZ=              0.0000

 Normal termination of Gaussian 16 at Wed Feb  8 15:04:47 2023.
