 Gaussian 16, Revision C.01,
 Gaussian 16:  ES64L-G16RevC.01  3-Jul-2019

 -----------------------------------
 #P HF/aug-cc-pVDZ scf(maxcycle=200)
 -----------------------------------

 --------------
 Gaussian input
 --------------
 Symbolic Z-matrix:
 Charge =  0 Multiplicity = 1

                         Standard orientation:
 ---------------------------------------------------------------------
 Center     Atomic      Atomic             Coordinates (Angstroms)
 Number     Number       Type             X           Y           Z
 ---------------------------------------------------------------------
      1          8           0        0.000000    0.103719    0.000000
      2          1           0        0.835278   -0.367440    0.000000
      3          1           0       -0.835278   -0.462312    0.000000
 ---------------------------------------------------------------------

 SCF Done:  E(RHF) =  -76.0340741635     A.U. after   10 cycles

 The electronic state is 1-A'.
 Alpha  occ. eigenvalues --  -20.57536  -1.33599  -0.72532  -0.55753  -0.50348
 Alpha virt. eigenvalues --    0.03571   0.05672   0.17596   0.19677   0.21641
 Alpha virt. eigenvalues --    0.22820   0.29116   0.31224   0.37700   0.42473
 Alpha virt. eigenvalues --    0.44874   0.52249   0.63916   0.65631   0.83271

 Mulliken charges:
               1
     1  O   -0.389977
     2  H    0.165707
     3  H    0.224271
 Sum of Mulliken charges =   0.00000

 Dipole moment (field-independent basis, Debye):
    X=              0.0144    Y=             -1.8094    Z=              0.0000  Tot=              1.8095
 Quadrupole moment (field-independent basis, Debye-Ang):
   XX=             -3.6780   YY=             -6.6405   ZZ=             -7.6792
   XY=              0.1927   XZ=              0.0000   YZ=              0.0000

 Normal termination of Gaussian 16 at Mon Feb 20 10:28:36 2023.
