 Gaussian 16, Revision C.01,
 Gaussian 16:  ES64L-G16RevC.01  3-Jul-2019

 ------------------------------------
 #P wB97XD/6-311g** scf(maxcycle=200)
 ------------------------------------

 --------------
 Gaussian input
 --------------
 Symbolic Z-matrix:
 Charge =  0 Multiplicity = 1

                         Standard orientation:
 ---------------------------------------------------------------------
 Center     Atomic      Atomic             Coordinates (Angstroms)
 Number     Number       Type             X           Y           Z
 ---------------------------------------------------------------------
      1          8           0        0.000000    0.131616   -0.000000
      2          1           0        0.662310   -0.561945   -0.000000
      3          1           0       -0.662310   -0.490981    0.000000
 ---------------------------------------------------------------------

 SCF Done:  E(RwB97XD) =  -76.4150615112     A.U. after   12 cycles

 The electronic state is 1-A'.
 Alpha  occ. eigenvalues --  -19.22811  -1.12775  -0.59159  -0.49364  -0.39238
 Alpha virt. eigenvalues --    0.11867   0.19828   0.45649   0.55188   0.85263
 Alpha virt. eigenvalues --    0.85529   0.96260   1.15652   1.17178   1.41058
 Alpha virt. eigenvalues --    1.46638   1.86847   1.99220   2.21153   2.41388

 Mulliken charges:
               1
     1  O   -0.437066
     2  H    0.217264
     3  H    0.219802
 Sum of Mulliken charges =  -0.00000

 Dipole moment (field-independent basis, Debye):
    X=             -0.0467    Y=             -2.2455    Z=              0.0000  Tot=              2.2460
 Quadrupole moment (field-independent basis, Debye-Ang):
   XX=             -4.8509   YY=             -5.6514   ZZ=             -7.1044
   XY=             -0.0828   XZ=              0.0000   YZ=              0.0000

 Normal termination of Gaussian 16 at Wed Feb  8 14:41:02 2023.
