 Gaussian 16, Revision C.01,
 Gaussian 16:  ES64L-G16RevC.01  3-Jul-2019

 ----------------------------------------
 #P CCSD(T)/aug-cc-pVTZ scf(maxcycle=200)
 ----------------------------------------

 --------------
 Gaussian input
 --------------
 Symbolic Z-matrix:
 Charge =  0 Multiplicity = 1

                         Standard orientation:
 ---------------------------------------------------------------------
 Center     Atomic      Atomic             Coordinates (Angstroms)
 Number     Number       Type             X           Y           Z
 ---------------------------------------------------------------------
      1          8           0       -0.000000   -0.000000    0.093021
      2          1           0        0.000000    0.780998   -0.372085
      3          1           0       -0.000000   -0.780998   -0.372085
 ---------------------------------------------------------------------

 SCF Done:  E(RHF) =  -76.0558672113     A.U. after   10 cycles
 E2 =    -0.2641411745D+00 EUMP2 =    -0.76320008385810D+02
 CCSD(T)
 CCSD(T)= -0.76333256723D+02

 The electronic state is 1-A1.
 Alpha  occ. eigenvalues --  -20.55234  -1.36972  -0.77235  -0.56693  -0.51087
 Alpha virt. eigenvalues --    0.03077   0.04709   0.13748   0.15320   0.17323
 Alpha virt. eigenvalues --    0.17961   0.23548   0.24479   0.26132   0.31844
 Alpha virt. eigenvalues --    0.32386   0.36465   0.44787   0.47185   0.61437

 Mulliken charges:
               1
     1  O   -0.347493
     2  H    0.173747
     3  H    0.173747
 Sum of Mulliken charges =   0.00000

 Dipole moment (field-independent basis, Debye):
    X=             -0.0000    Y=             -0.0000    Z=             -1.7016  Tot=              1.7016
 Quadrupole moment (field-independent basis, Debye-Ang):
   XX=             -7.4679   YY=             -3.8110   ZZ=             -6.5957
   XY=              0.0000   XZ=              0.0000   YZ=              0.0000

 .3255597\CCSD=-76.3251336\CCSD(T)=-76.3332567\RMSD=2.062e-09\PG=C02V [
 Normal termination of Gaussian 16 at Wed Feb  8 13:49:04 2023.
