 Gaussian 16, Revision C.01,
 Gaussian 16:  ES64L-G16RevC.01  3-Jul-2019

 -----------------------------------
 #P HF/aug-cc-pVDZ scf(maxcycle=200)
 -----------------------------------

 --------------
 Gaussian input
 --------------
 Symbolic Z-matrix:
 Charge =  0 Multiplicity = 1

                         Standard orientation:
 ---------------------------------------------------------------------
 Center     Atomic      Atomic             Coordinates (Angstroms)
 Number     Number       Type             X           Y           Z
 ---------------------------------------------------------------------
      1          8           0        0.000000   -0.000000    0.098138
      2          1           0        0.000000    0.823957   -0.392552
      3          1           0       -0.000000   -0.823957   -0.392552
 ---------------------------------------------------------------------

 SCF Done:  E(RHF) =  -76.0372320458     A.U. after   10 cycles

 The electronic state is 1-A1.
 Alpha  occ. eigenvalues --  -20.57060  -1.34629  -0.74297  -0.55841  -0.50502
 Alpha virt. eigenvalues --    0.03637   0.05670   0.17570   0.19524   0.21902
 Alpha virt. eigenvalues --    0.22687   0.30027   0.31155   0.37813   0.43257
 Alpha virt. eigenvalues --    0.45554   0.52408   0.65109   0.65412   0.85170

 Mulliken charges:
               1
     1  O   -0.342864
     2  H    0.171432
     3  H    0.171432
 Sum of Mulliken charges =   0.00000

 Dipole moment (field-independent basis, Debye):
    X=             -0.0000    Y=              0.0000    Z=             -1.7544  Tot=              1.7544
 Quadrupole moment (field-independent basis, Debye-Ang):
   XX=             -7.6246   YY=             -3.6717   ZZ=             -6.6848
   XY=              0.0000   XZ=              0.0000   YZ=              0.0000

 Normal termination of Gaussian 16 at Mon Feb 20 10:28:16 2023.
