 Gaussian 16, Revision C.01,
 Gaussian 16:  ES64L-G16RevC.01  3-Jul-2019

 ------------------------------------
 #P wB97XD/6-311g** scf(maxcycle=200)
 ------------------------------------

 --------------
 Gaussian input
 --------------
 Symbolic Z-matrix:
 Charge =  0 Multiplicity = 1

                         Standard orientation:
 ---------------------------------------------------------------------
 Center     Atomic      Atomic             Coordinates (Angstroms)
 Number     Number       Type             X           Y           Z
 ---------------------------------------------------------------------
      1          8           0        0.000000    0.130462    0.000000
      2          1           0        0.700906   -0.448340    0.000000
      3          1           0       -0.700906   -0.595356    0.000000
 ---------------------------------------------------------------------

 SCF Done:  E(RwB97XD) =  -76.4159920452     A.U. after   12 cycles

 The electronic state is 1-A'.
 Alpha  occ. eigenvalues --  -19.23039  -1.11342  -0.59126  -0.48301  -0.38942
 Alpha virt. eigenvalues --    0.11375   0.19315   0.44266   0.54070   0.85315
 Alpha virt. eigenvalues --    0.85561   0.95715   1.16684   1.19886   1.38705
 Alpha virt. eigenvalues --    1.49177   1.81537   1.95747   2.18637   2.38939

 Mulliken charges:
               1
     1  O   -0.452634
     2  H    0.228052
     3  H    0.224582
 Sum of Mulliken charges =   0.00000

 Dipole moment (field-independent basis, Debye):
    X=              0.0920    Y=             -2.2171    Z=              0.0000  Tot=              2.2190
 Quadrupole moment (field-independent basis, Debye-Ang):
   XX=             -4.6686   YY=             -5.7419   ZZ=             -7.1603
   XY=              0.1877   XZ=              0.0000   YZ=              0.0000

 Normal termination of Gaussian 16 at Wed Feb  8 14:40:36 2023.
