 Gaussian 16, Revision C.01,
 Gaussian 16:  ES64L-G16RevC.01  3-Jul-2019

 ------------------------------------
 #P wB97XD/6-311g** scf(maxcycle=200)
 ------------------------------------

 --------------
 Gaussian input
 --------------
 Symbolic Z-matrix:
 Charge =  0 Multiplicity = 1

                         Standard orientation:
 ---------------------------------------------------------------------
 Center     Atomic      Atomic             Coordinates (Angstroms)
 Number     Number       Type             X           Y           Z
 ---------------------------------------------------------------------
      1          8           0        0.000000    0.000000    0.100999
      2          1           0       -0.000000    0.815268   -0.403996
      3          1           0       -0.000000   -0.815268   -0.403996
 ---------------------------------------------------------------------

 SCF Done:  E(RwB97XD) =  -76.4199070648     A.U. after   12 cycles

 The electronic state is 1-A1.
 Alpha  occ. eigenvalues --  -19.21925  -1.09335  -0.62917  -0.43936  -0.38265
 Alpha virt. eigenvalues --    0.12089   0.19264   0.47221   0.49046   0.85031
 Alpha virt. eigenvalues --    0.85714   0.94554   1.15048   1.31919   1.49926
 Alpha virt. eigenvalues --    1.60539   1.66770   2.08295   2.10213   2.45371

 Mulliken charges:
               1
     1  O   -0.530317
     2  H    0.265158
     3  H    0.265158
 Sum of Mulliken charges =   0.00000

 Dipole moment (field-independent basis, Debye):
    X=             -0.0000    Y=              0.0000    Z=             -1.9100  Tot=              1.9100
 Quadrupole moment (field-independent basis, Debye-Ang):
   XX=             -7.1836   YY=             -3.6994   ZZ=             -6.3373
   XY=              0.0000   XZ=              0.0000   YZ=             -0.0000

 Normal termination of Gaussian 16 at Wed Feb  8 14:41:37 2023.
