 Gaussian 16, Revision C.01,
 Gaussian 16:  ES64L-G16RevC.01  3-Jul-2019

 ------------------------------
 #P HF/6-31g* scf(maxcycle=200)
 ------------------------------

 --------------
 Gaussian input
 --------------
 Symbolic Z-matrix:
 Charge =  0 Multiplicity = 1

                         Standard orientation:
 ---------------------------------------------------------------------
 Center     Atomic      Atomic             Coordinates (Angstroms)
 Number     Number       Type             X           Y           Z
 ---------------------------------------------------------------------
      1          8           0        0.000000    0.145771    0.000000
      2          1           0        0.660689   -0.616837   -0.000000
      3          1           0       -0.660689   -0.549334   -0.000000
 ---------------------------------------------------------------------

 SCF Done:  E(RHF) =  -75.9945284621     A.U. after   10 cycles

 The electronic state is 1-A'.
 Alpha  occ. eigenvalues --  -20.57554  -1.34732  -0.65297  -0.60716  -0.50391
 Alpha virt. eigenvalues --    0.19742   0.29367   0.95090   1.12156   1.16246
 Alpha virt. eigenvalues --    1.18382   1.35787   1.50343   1.99615   2.04807
 Alpha virt. eigenvalues --    2.05633   2.65820   2.81619   3.91459

 Mulliken charges:
               1
     1  O   -0.828236
     2  H    0.408314
     3  H    0.419923
 Sum of Mulliken charges =  -0.00000

 Dipole moment (field-independent basis, Debye):
    X=             -0.0540    Y=             -2.5672    Z=             -0.0000  Tot=              2.5677
 Quadrupole moment (field-independent basis, Debye-Ang):
   XX=             -5.0610   YY=             -5.4034   ZZ=             -7.2871
   XY=             -0.0689   XZ=              0.0000   YZ=              0.0000

 Normal termination of Gaussian 16 at Wed Feb  8 15:07:04 2023.
