 Gaussian 16, Revision C.01,
 Gaussian 16:  ES64L-G16RevC.01  3-Jul-2019

 -----------------------------------
 #P HF/aug-cc-pVDZ scf(maxcycle=200)
 -----------------------------------

 --------------
 Gaussian input
 --------------
 Symbolic Z-matrix:
 Charge =  0 Multiplicity = 1

                         Standard orientation:
 ---------------------------------------------------------------------
 Center     Atomic      Atomic             Coordinates (Angstroms)
 Number     Number       Type             X           Y           Z
 ---------------------------------------------------------------------
      1          8           0        0.000000    0.122949   -0.000000
      2          1           0        0.733611   -0.569796   -0.000000
      3          1           0       -0.733611   -0.413797    0.000000
 ---------------------------------------------------------------------

 SCF Done:  E(RHF) =  -76.0355632776     A.U. after   10 cycles

 The electronic state is 1-A'.
 Alpha  occ. eigenvalues --  -20.57882  -1.36117  -0.71113  -0.59237  -0.51068
 Alpha virt. eigenvalues --    0.03490   0.05830   0.17314   0.19707   0.22152
 Alpha virt. eigenvalues --    0.23283   0.28669   0.33923   0.38692   0.39682
 Alpha virt. eigenvalues --    0.42904   0.54316   0.63805   0.66362   0.80290

 Mulliken charges:
               1
     1  O   -0.291884
     2  H    0.200202
     3  H    0.091682
 Sum of Mulliken charges =   0.00000

 Dipole moment (field-independent basis, Debye):
    X=             -0.0513    Y=             -2.0662    Z=             -0.0000  Tot=              2.0669
 Quadrupole moment (field-independent basis, Debye-Ang):
   XX=             -4.4717   YY=             -6.1118   ZZ=             -7.5830
   XY=             -0.2497   XZ=             -0.0000   YZ=              0.0000

 Normal termination of Gaussian 16 at Mon Feb 20 10:28:49 2023.
