 Gaussian 16, Revision C.01,
 Gaussian 16:  ES64L-G16RevC.01  3-Jul-2019

 ------------------------------------
 #P wB97XD/6-311g** scf(maxcycle=200)
 ------------------------------------

 --------------
 Gaussian input
 --------------
 Symbolic Z-matrix:
 Charge =  0 Multiplicity = 1

                         Standard orientation:
 ---------------------------------------------------------------------
 Center     Atomic      Atomic             Coordinates (Angstroms)
 Number     Number       Type             X           Y           Z
 ---------------------------------------------------------------------
      1          8           0        0.000000    0.117755    0.000000
      2          1           0        0.754250   -0.389580    0.000000
      3          1           0       -0.754250   -0.552460    0.000000
 ---------------------------------------------------------------------

 SCF Done:  E(RwB97XD) =  -76.4183059949     A.U. after   12 cycles

 The electronic state is 1-A'.
 Alpha  occ. eigenvalues --  -19.22546  -1.10487  -0.61002  -0.46270  -0.38651
 Alpha virt. eigenvalues --    0.11677   0.19301   0.45264   0.52417   0.85123
 Alpha virt. eigenvalues --    0.85465   0.95255   1.15585   1.33537   1.35184
 Alpha virt. eigenvalues --    1.54953   1.74293   1.99639   2.16118   2.39340

 Mulliken charges:
               1
     1  O   -0.488875
     2  H    0.245356
     3  H    0.243519
 Sum of Mulliken charges =   0.00000

 Dipole moment (field-independent basis, Debye):
    X=              0.0855    Y=             -2.0962    Z=              0.0000  Tot=              2.0980
 Quadrupole moment (field-independent basis, Debye-Ang):
   XX=             -4.2394   YY=             -6.0011   ZZ=             -7.1690
   XY=              0.2491   XZ=              0.0000   YZ=              0.0000

 Normal termination of Gaussian 16 at Wed Feb  8 14:40:47 2023.
