 Gaussian 16, Revision C.01,
 Gaussian 16:  ES64L-G16RevC.01  3-Jul-2019

 ----------------------------------------
 #P PBE1PBE/aug-cc-pVDZ scf(maxcycle=200)
 ----------------------------------------

 --------------
 Gaussian input
 --------------
 Symbolic Z-matrix:
 Charge =  0 Multiplicity = 1

                         Standard orientation:
 ---------------------------------------------------------------------
 Center     Atomic      Atomic             Coordinates (Angstroms)
 Number     Number       Type             X           Y           Z
 ---------------------------------------------------------------------
      1          8           0        0.000000    0.142189    0.000000
      2          1           0        0.642020   -0.501311    0.000000
      3          1           0       -0.642020   -0.636201    0.000000
 ---------------------------------------------------------------------

 SCF Done:  E(RPBE1PBE) =  -76.3438913582     A.U. after    8 cycles

 The electronic state is 1-A'.
 Alpha  occ. eigenvalues --  -19.23693  -1.06705  -0.51059  -0.45018  -0.33740
 Alpha virt. eigenvalues --   -0.01636   0.03466   0.10625   0.13323   0.14414
 Alpha virt. eigenvalues --    0.17002   0.18496   0.26543   0.27758   0.29883
 Alpha virt. eigenvalues --    0.31314   0.47203   0.49900   0.55363   0.60618

 Mulliken charges:
               1
     1  O   -0.217093
     2  H    0.067179
     3  H    0.149914
 Sum of Mulliken charges =   0.00000

 Dipole moment (field-independent basis, Debye):
    X=              0.0656    Y=             -2.1323    Z=              0.0000  Tot=              2.1333
 Quadrupole moment (field-independent basis, Debye-Ang):
   XX=             -5.3201   YY=             -5.8233   ZZ=             -7.7077
   XY=              0.1604   XZ=              0.0000   YZ=              0.0000

 Normal termination of Gaussian 16 at Mon Mar 20 17:33:40 2023.
