 Gaussian 16, Revision C.01,
 Gaussian 16:  ES64L-G16RevC.01  3-Jul-2019

 ---------------------------------
 #P B3LYP/6-31g* scf(maxcycle=200)
 ---------------------------------

 --------------
 Gaussian input
 --------------
 Symbolic Z-matrix:
 Charge =  0 Multiplicity = 1

                         Standard orientation:
 ---------------------------------------------------------------------
 Center     Atomic      Atomic             Coordinates (Angstroms)
 Number     Number       Type             X           Y           Z
 ---------------------------------------------------------------------
      1          8           0        0.000000   -0.000000    0.130279
      2          1           0        0.000000    0.634007   -0.521116
      3          1           0       -0.000000   -0.634007   -0.521116
 ---------------------------------------------------------------------

 SCF Done:  E(RB3LYP) =  -76.3924363608     A.U. after    9 cycles

 The electronic state is 1-A1.
 Alpha  occ. eigenvalues --  -19.13430  -1.04323  -0.50843  -0.40810  -0.30053
 Alpha virt. eigenvalues --    0.07091   0.16766   0.75285   0.87776   0.88723
 Alpha virt. eigenvalues --    0.98580   1.07691   1.25265   1.68079   1.74710
 Alpha virt. eigenvalues --    1.75051   2.41421   2.60502   3.54898

 Mulliken charges:
               1
     1  O   -0.758271
     2  H    0.379135
     3  H    0.379135
 Sum of Mulliken charges =   0.00000

 Dipole moment (field-independent basis, Debye):
    X=             -0.0000    Y=             -0.0000    Z=             -2.2870  Tot=              2.2870
 Quadrupole moment (field-independent basis, Debye-Ang):
   XX=             -7.0913   YY=             -4.9949   ZZ=             -5.5914
   XY=              0.0000   XZ=              0.0000   YZ=              0.0000

 Normal termination of Gaussian 16 at Wed Feb  8 14:49:33 2023.
