 Gaussian 16, Revision C.01,
 Gaussian 16:  ES64L-G16RevC.01  3-Jul-2019

 ----------------------------------------
 #P CCSD(T)/aug-cc-pVDZ scf(maxcycle=200)
 ----------------------------------------

 --------------
 Gaussian input
 --------------
 Symbolic Z-matrix:
 Charge =  0 Multiplicity = 1

                         Standard orientation:
 ---------------------------------------------------------------------
 Center     Atomic      Atomic             Coordinates (Angstroms)
 Number     Number       Type             X           Y           Z
 ---------------------------------------------------------------------
      1          8           0        0.000000    0.117887   -0.000000
      2          1           0        0.787213   -0.513283    0.000000
      3          1           0       -0.787213   -0.429814    0.000000
 ---------------------------------------------------------------------

 SCF Done:  E(RHF) =  -76.0374100805     A.U. after   10 cycles
 E2 =    -0.2215753060D+00 EUMP2 =    -0.76258985386472D+02
 CCSD(T)
 CCSD(T)= -0.76272048097D+02

 The electronic state is 1-A'.
 Alpha  occ. eigenvalues --  -20.58063  -1.34248  -0.70865  -0.57652  -0.50676
 Alpha virt. eigenvalues --    0.03507   0.05761   0.17473   0.19774   0.21962
 Alpha virt. eigenvalues --    0.23164   0.28404   0.32558   0.38247   0.40410
 Alpha virt. eigenvalues --    0.43301   0.53330   0.63863   0.65805   0.80560

 Mulliken charges:
               1
     1  O   -0.359871
     2  H    0.207804
     3  H    0.152068
 Sum of Mulliken charges =  -0.00000

 Dipole moment (field-independent basis, Debye):
    X=             -0.0219    Y=             -1.9876    Z=              0.0000  Tot=              1.9878
 Quadrupole moment (field-independent basis, Debye-Ang):
   XX=             -4.1311   YY=             -6.3307   ZZ=             -7.6559
   XY=             -0.1485   XZ=              0.0000   YZ=             -0.0000

 2668524\CCSD=-76.2666476\CCSD(T)=-76.2720481\RMSD=9.677e-09\PG=CS [SG(
 Normal termination of Gaussian 16 at Wed Feb  8 14:50:50 2023.
