 Gaussian 16, Revision C.01,
 Gaussian 16:  ES64L-G16RevC.01  3-Jul-2019

 ------------------------------------
 #P wB97XD/6-311g** scf(maxcycle=200)
 ------------------------------------

 --------------
 Gaussian input
 --------------
 Symbolic Z-matrix:
 Charge =  0 Multiplicity = 1

                         Standard orientation:
 ---------------------------------------------------------------------
 Center     Atomic      Atomic             Coordinates (Angstroms)
 Number     Number       Type             X           Y           Z
 ---------------------------------------------------------------------
      1          8           0        0.000000    0.131163    0.000000
      2          1           0        0.733064   -0.487140    0.000000
      3          1           0       -0.733064   -0.562161    0.000000
 ---------------------------------------------------------------------

 SCF Done:  E(RwB97XD) =  -76.4199175044     A.U. after   12 cycles

 The electronic state is 1-A'.
 Alpha  occ. eigenvalues --  -19.23408  -1.09907  -0.58633  -0.47690  -0.38685
 Alpha virt. eigenvalues --    0.11103   0.18671   0.43962   0.51456   0.85390
 Alpha virt. eigenvalues --    0.85694   0.95276   1.16676   1.22733   1.37297
 Alpha virt. eigenvalues --    1.49990   1.77915   1.95021   2.14230   2.37010

 Mulliken charges:
               1
     1  O   -0.461371
     2  H    0.231197
     3  H    0.230175
 Sum of Mulliken charges =   0.00000

 Dipole moment (field-independent basis, Debye):
    X=              0.0460    Y=             -2.2097    Z=              0.0000  Tot=              2.2102
 Quadrupole moment (field-independent basis, Debye-Ang):
   XX=             -4.5420   YY=             -5.8142   ZZ=             -7.2176
   XY=              0.1008   XZ=              0.0000   YZ=              0.0000

 Normal termination of Gaussian 16 at Wed Feb  8 14:41:48 2023.
