 Gaussian 16, Revision C.01,
 Gaussian 16:  ES64L-G16RevC.01  3-Jul-2019

 ----------------------------------------
 #P PBE1PBE/aug-cc-pVDZ scf(maxcycle=200)
 ----------------------------------------

 --------------
 Gaussian input
 --------------
 Symbolic Z-matrix:
 Charge =  0 Multiplicity = 1

                         Standard orientation:
 ---------------------------------------------------------------------
 Center     Atomic      Atomic             Coordinates (Angstroms)
 Number     Number       Type             X           Y           Z
 ---------------------------------------------------------------------
      1          8           0        0.000000    0.000000    0.108839
      2          1           0        0.000000    0.728102   -0.435356
      3          1           0       -0.000000   -0.728102   -0.435356
 ---------------------------------------------------------------------

 SCF Done:  E(RPBE1PBE) =  -76.3539471988     A.U. after    8 cycles

 The electronic state is 1-A1.
 Alpha  occ. eigenvalues --  -19.22171  -1.07013  -0.57635  -0.41232  -0.33720
 Alpha virt. eigenvalues --   -0.00808   0.03454   0.11420   0.13041   0.14927
 Alpha virt. eigenvalues --    0.17106   0.20355   0.24256   0.29503   0.31659
 Alpha virt. eigenvalues --    0.34428   0.45982   0.53430   0.55010   0.65977

 Mulliken charges:
               1
     1  O   -0.113398
     2  H    0.056699
     3  H    0.056699
 Sum of Mulliken charges =   0.00000

 Dipole moment (field-independent basis, Debye):
    X=             -0.0000    Y=             -0.0000    Z=             -1.8129  Tot=              1.8129
 Quadrupole moment (field-independent basis, Debye-Ang):
   XX=             -7.6250   YY=             -4.4945   ZZ=             -6.4487
   XY=              0.0000   XZ=              0.0000   YZ=              0.0000

 Normal termination of Gaussian 16 at Mon Mar 20 17:57:06 2023.
