 Gaussian 16, Revision C.01,
 Gaussian 16:  ES64L-G16RevC.01  3-Jul-2019

 -----------------------------------
 #P HF/aug-cc-pVDZ scf(maxcycle=200)
 -----------------------------------

 --------------
 Gaussian input
 --------------
 Symbolic Z-matrix:
 Charge =  0 Multiplicity = 1

                         Standard orientation:
 ---------------------------------------------------------------------
 Center     Atomic      Atomic             Coordinates (Angstroms)
 Number     Number       Type             X           Y           Z
 ---------------------------------------------------------------------
      1          8           0       -0.000000    0.000000    0.123464
      2          1           0        0.000000    0.667230   -0.493857
      3          1           0       -0.000000   -0.667230   -0.493857
 ---------------------------------------------------------------------

 SCF Done:  E(RHF) =  -76.0343232211     A.U. after   10 cycles

 The electronic state is 1-A1.
 Alpha  occ. eigenvalues --  -20.57256  -1.39206  -0.72342  -0.61556  -0.51631
 Alpha virt. eigenvalues --    0.03522   0.05900   0.17138   0.19560   0.22582
 Alpha virt. eigenvalues --    0.23258   0.30052   0.35407   0.39325   0.39489
 Alpha virt. eigenvalues --    0.42721   0.55577   0.65529   0.65877   0.81723

 Mulliken charges:
               1
     1  O   -0.181623
     2  H    0.090811
     3  H    0.090811
 Sum of Mulliken charges =   0.00000

 Dipole moment (field-independent basis, Debye):
    X=             -0.0000    Y=             -0.0000    Z=             -2.1099  Tot=              2.1099
 Quadrupole moment (field-independent basis, Debye-Ang):
   XX=             -7.4546   YY=             -4.7905   ZZ=             -5.9485
   XY=              0.0000   XZ=              0.0000   YZ=              0.0000

 Normal termination of Gaussian 16 at Mon Feb 20 10:14:39 2023.
