 Gaussian 16, Revision C.01,
 Gaussian 16:  ES64L-G16RevC.01  3-Jul-2019

 ---------------------------------
 #P B3LYP/6-31g* scf(maxcycle=200)
 ---------------------------------

 --------------
 Gaussian input
 --------------
 Symbolic Z-matrix:
 Charge =  0 Multiplicity = 1

                         Standard orientation:
 ---------------------------------------------------------------------
 Center     Atomic      Atomic             Coordinates (Angstroms)
 Number     Number       Type             X           Y           Z
 ---------------------------------------------------------------------
      1          8           0        0.000000    0.128584    0.000000
      2          1           0        0.744360   -0.552599    0.000000
      3          1           0       -0.744360   -0.476073   -0.000000
 ---------------------------------------------------------------------

 SCF Done:  E(RB3LYP) =  -76.4069112731     A.U. after   10 cycles

 The electronic state is 1-A'.
 Alpha  occ. eigenvalues --  -19.14341  -0.99657  -0.50256  -0.38201  -0.29199
 Alpha virt. eigenvalues --    0.05642   0.14166   0.74631   0.86096   0.88958
 Alpha virt. eigenvalues --    0.89732   1.05860   1.21217   1.71815   1.75316
 Alpha virt. eigenvalues --    1.77614   2.26185   2.54257   3.53514

 Mulliken charges:
               1
     1  O   -0.760627
     2  H    0.374978
     3  H    0.385650
 Sum of Mulliken charges =   0.00000

 Dipole moment (field-independent basis, Debye):
    X=             -0.0520    Y=             -2.1757    Z=             -0.0000  Tot=              2.1763
 Quadrupole moment (field-independent basis, Debye-Ang):
   XX=             -4.5104   YY=             -5.8538   ZZ=             -7.2349
   XY=             -0.0988   XZ=             -0.0000   YZ=             -0.0000

 Normal termination of Gaussian 16 at Wed Feb  8 14:52:13 2023.
