 Gaussian 16, Revision C.01,
 Gaussian 16:  ES64L-G16RevC.01  3-Jul-2019

 ---------------------------------
 #P B3LYP/6-31g* scf(maxcycle=200)
 ---------------------------------

 --------------
 Gaussian input
 --------------
 Symbolic Z-matrix:
 Charge =  0 Multiplicity = 1

                         Standard orientation:
 ---------------------------------------------------------------------
 Center     Atomic      Atomic             Coordinates (Angstroms)
 Number     Number       Type             X           Y           Z
 ---------------------------------------------------------------------
      1          8           0        0.000000    0.145771    0.000000
      2          1           0        0.660689   -0.616837   -0.000000
      3          1           0       -0.660689   -0.549334   -0.000000
 ---------------------------------------------------------------------

 SCF Done:  E(RB3LYP) =  -76.3972240625     A.U. after   10 cycles

 The electronic state is 1-A'.
 Alpha  occ. eigenvalues --  -19.14973  -1.01060  -0.47514  -0.41171  -0.29645
 Alpha virt. eigenvalues --    0.04964   0.13890   0.71733   0.86286   0.88639
 Alpha virt. eigenvalues --    0.90559   1.04961   1.25412   1.70227   1.75816
 Alpha virt. eigenvalues --    1.76517   2.32827   2.47052   3.50523

 Mulliken charges:
               1
     1  O   -0.737294
     2  H    0.361831
     3  H    0.375462
 Sum of Mulliken charges =   0.00000

 Dipole moment (field-independent basis, Debye):
    X=             -0.0578    Y=             -2.3615    Z=             -0.0000  Tot=              2.3622
 Quadrupole moment (field-independent basis, Debye-Ang):
   XX=             -5.1582   YY=             -5.4815   ZZ=             -7.2402
   XY=             -0.0607   XZ=              0.0000   YZ=              0.0000

 Normal termination of Gaussian 16 at Wed Feb  8 14:52:04 2023.
