 Gaussian 16, Revision C.01,
 Gaussian 16:  ES64L-G16RevC.01  3-Jul-2019

 ---------------------------------
 #P B3LYP/6-31g* scf(maxcycle=200)
 ---------------------------------

 --------------
 Gaussian input
 --------------
 Symbolic Z-matrix:
 Charge =  0 Multiplicity = 1

                         Standard orientation:
 ---------------------------------------------------------------------
 Center     Atomic      Atomic             Coordinates (Angstroms)
 Number     Number       Type             X           Y           Z
 ---------------------------------------------------------------------
      1          8           0        0.000000    0.111904    0.000000
      2          1           0        0.747112   -0.405884    0.000000
      3          1           0       -0.747112   -0.489348    0.000000
 ---------------------------------------------------------------------

 SCF Done:  E(RB3LYP) =  -76.4050784594     A.U. after    9 cycles

 The electronic state is 1-A'.
 Alpha  occ. eigenvalues --  -19.13061  -1.01150  -0.53542  -0.36894  -0.29299
 Alpha virt. eigenvalues --    0.07164   0.16115   0.79566   0.88587   0.89119
 Alpha virt. eigenvalues --    0.90331   1.07887   1.19070   1.72979   1.73599
 Alpha virt. eigenvalues --    1.77782   2.32014   2.64630   3.57557

 Mulliken charges:
               1
     1  O   -0.784180
     2  H    0.394660
     3  H    0.389520
 Sum of Mulliken charges =   0.00000

 Dipole moment (field-independent basis, Debye):
    X=              0.0452    Y=             -2.0379    Z=              0.0000  Tot=              2.0384
 Quadrupole moment (field-independent basis, Debye-Ang):
   XX=             -4.2199   YY=             -6.0347   ZZ=             -7.1332
   XY=              0.1243   XZ=              0.0000   YZ=              0.0000

 Normal termination of Gaussian 16 at Wed Feb  8 14:50:08 2023.
