 Gaussian 16, Revision C.01,
 Gaussian 16:  ES64L-G16RevC.01  3-Jul-2019

 ----------------------------------------
 #P PBE1PBE/aug-cc-pVDZ scf(maxcycle=200)
 ----------------------------------------

 --------------
 Gaussian input
 --------------
 Symbolic Z-matrix:
 Charge =  0 Multiplicity = 1

                         Standard orientation:
 ---------------------------------------------------------------------
 Center     Atomic      Atomic             Coordinates (Angstroms)
 Number     Number       Type             X           Y           Z
 ---------------------------------------------------------------------
      1          8           0       -0.000000    0.000000    0.137047
      2          1           0        0.000000    0.740632   -0.548187
      3          1           0       -0.000000   -0.740632   -0.548187
 ---------------------------------------------------------------------

 SCF Done:  E(RPBE1PBE) =  -76.3544218462     A.U. after    8 cycles

 The electronic state is 1-A1.
 Alpha  occ. eigenvalues --  -19.24188  -1.03404  -0.51462  -0.42587  -0.33134
 Alpha virt. eigenvalues --   -0.01761   0.03111   0.10786   0.13353   0.14234
 Alpha virt. eigenvalues --    0.15061   0.18431   0.24661   0.28007   0.29326
 Alpha virt. eigenvalues --    0.31290   0.45480   0.49840   0.52311   0.61831

 Mulliken charges:
               1
     1  O   -0.313855
     2  H    0.156927
     3  H    0.156927
 Sum of Mulliken charges =  -0.00000

 Dipole moment (field-independent basis, Debye):
    X=             -0.0000    Y=             -0.0000    Z=             -2.0331  Tot=              2.0331
 Quadrupole moment (field-independent basis, Debye-Ang):
   XX=             -7.8474   YY=             -4.8243   ZZ=             -6.1418
   XY=              0.0000   XZ=              0.0000   YZ=             -0.0000

 Normal termination of Gaussian 16 at Mon Mar 20 17:35:42 2023.
