 Gaussian 16, Revision C.01,
 Gaussian 16:  ES64L-G16RevC.01  3-Jul-2019

 ----------------------------------------
 #P PBE1PBE/aug-cc-pVDZ scf(maxcycle=200)
 ----------------------------------------

 --------------
 Gaussian input
 --------------
 Symbolic Z-matrix:
 Charge =  0 Multiplicity = 1

                         Standard orientation:
 ---------------------------------------------------------------------
 Center     Atomic      Atomic             Coordinates (Angstroms)
 Number     Number       Type             X           Y           Z
 ---------------------------------------------------------------------
      1          8           0        0.000000    0.092865    0.000000
      2          1           0        0.809229   -0.321174    0.000000
      3          1           0       -0.809229   -0.421750    0.000000
 ---------------------------------------------------------------------

 SCF Done:  E(RPBE1PBE) =  -76.3521172505     A.U. after    9 cycles

 The electronic state is 1-A'.
 Alpha  occ. eigenvalues --  -19.22013  -1.04928  -0.58934  -0.38466  -0.33230
 Alpha virt. eigenvalues --   -0.00897   0.03222   0.11500   0.12966   0.13944
 Alpha virt. eigenvalues --    0.16482   0.20884   0.22249   0.28514   0.34074
 Alpha virt. eigenvalues --    0.36269   0.43974   0.52425   0.54397   0.68600

 Mulliken charges:
               1
     1  O   -0.210780
     2  H    0.076116
     3  H    0.134665
 Sum of Mulliken charges =  -0.00000

 Dipole moment (field-independent basis, Debye):
    X=              0.0147    Y=             -1.5991    Z=              0.0000  Tot=              1.5992
 Quadrupole moment (field-independent basis, Debye-Ang):
   XX=             -3.9116   YY=             -6.8520   ZZ=             -7.7210
   XY=              0.2010   XZ=              0.0000   YZ=              0.0000

 Normal termination of Gaussian 16 at Mon Mar 20 17:58:10 2023.
