 Gaussian 16, Revision C.01,
 Gaussian 16:  ES64L-G16RevC.01  3-Jul-2019

 ----------------------------------------
 #P CCSD(T)/aug-cc-pVTZ scf(maxcycle=200)
 ----------------------------------------

 --------------
 Gaussian input
 --------------
 Symbolic Z-matrix:
 Charge =  0 Multiplicity = 1

                         Standard orientation:
 ---------------------------------------------------------------------
 Center     Atomic      Atomic             Coordinates (Angstroms)
 Number     Number       Type             X           Y           Z
 ---------------------------------------------------------------------
      1          8           0        0.000000    0.000000    0.108839
      2          1           0        0.000000    0.728102   -0.435356
      3          1           0       -0.000000   -0.728102   -0.435356
 ---------------------------------------------------------------------

 SCF Done:  E(RHF) =  -76.0587614913     A.U. after   10 cycles
 E2 =    -0.2644552180D+00 EUMP2 =    -0.76323216709271D+02
 CCSD(T)
 CCSD(T)= -0.76336523101D+02

 The electronic state is 1-A1.
 Alpha  occ. eigenvalues --  -20.55750  -1.37859  -0.74938  -0.59028  -0.51417
 Alpha virt. eigenvalues --    0.03012   0.04774   0.13621   0.15564   0.17614
 Alpha virt. eigenvalues --    0.18217   0.23233   0.24723   0.26511   0.30526
 Alpha virt. eigenvalues --    0.31361   0.36735   0.44856   0.47422   0.60495

 Mulliken charges:
               1
     1  O   -0.349689
     2  H    0.174845
     3  H    0.174845
 Sum of Mulliken charges =   0.00000

 Dipole moment (field-independent basis, Debye):
    X=             -0.0000    Y=             -0.0000    Z=             -1.9104  Tot=              1.9104
 Quadrupole moment (field-independent basis, Debye-Ang):
   XX=             -7.4467   YY=             -4.2740   ZZ=             -6.2654
   XY=              0.0000   XZ=              0.0000   YZ=              0.0000

 .3288068\CCSD=-76.3283798\CCSD(T)=-76.3365231\RMSD=2.248e-09\PG=C02V [
 Normal termination of Gaussian 16 at Wed Feb  8 13:48:06 2023.
