 Gaussian 16, Revision C.01,
 Gaussian 16:  ES64L-G16RevC.01  3-Jul-2019

 ------------------------------------
 #P wB97XD/6-311g** scf(maxcycle=200)
 ------------------------------------

 --------------
 Gaussian input
 --------------
 Symbolic Z-matrix:
 Charge =  0 Multiplicity = 1

                         Standard orientation:
 ---------------------------------------------------------------------
 Center     Atomic      Atomic             Coordinates (Angstroms)
 Number     Number       Type             X           Y           Z
 ---------------------------------------------------------------------
      1          8           0       -0.000000    0.000000    0.137047
      2          1           0        0.000000    0.740632   -0.548187
      3          1           0       -0.000000   -0.740632   -0.548187
 ---------------------------------------------------------------------

 SCF Done:  E(RwB97XD) =  -76.4172876349     A.U. after   12 cycles

 The electronic state is 1-A1.
 Alpha  occ. eigenvalues --  -19.23927  -1.08987  -0.57411  -0.47901  -0.38568
 Alpha virt. eigenvalues --    0.10571   0.18002   0.42888   0.49987   0.85355
 Alpha virt. eigenvalues --    0.86020   0.95054   1.17261   1.20841   1.37498
 Alpha virt. eigenvalues --    1.48608   1.77128   1.92147   2.10414   2.36936

 Mulliken charges:
               1
     1  O   -0.457607
     2  H    0.228803
     3  H    0.228803
 Sum of Mulliken charges =   0.00000

 Dipole moment (field-independent basis, Debye):
    X=             -0.0000    Y=              0.0000    Z=             -2.2456  Tot=              2.2456
 Quadrupole moment (field-independent basis, Debye-Ang):
   XX=             -7.2698   YY=             -4.6019   ZZ=             -5.7630
   XY=              0.0000   XZ=              0.0000   YZ=             -0.0000

 Normal termination of Gaussian 16 at Wed Feb  8 14:42:49 2023.
