 Gaussian 16, Revision C.01,
 Gaussian 16:  ES64L-G16RevC.01  3-Jul-2019

 ----------------------------------------
 #P CCSD(T)/aug-cc-pVTZ scf(maxcycle=200)
 ----------------------------------------

 --------------
 Gaussian input
 --------------
 Symbolic Z-matrix:
 Charge =  0 Multiplicity = 1

                         Standard orientation:
 ---------------------------------------------------------------------
 Center     Atomic      Atomic             Coordinates (Angstroms)
 Number     Number       Type             X           Y           Z
 ---------------------------------------------------------------------
      1          8           0       -0.000000    0.000000    0.123464
      2          1           0        0.000000    0.667230   -0.493857
      3          1           0       -0.000000   -0.667230   -0.493857
 ---------------------------------------------------------------------

 SCF Done:  E(RHF) =  -76.0539483156     A.U. after    9 cycles
 E2 =    -0.2654979948D+00 EUMP2 =    -0.76319446310353D+02
 CCSD(T)
 CCSD(T)= -0.76332683100D+02

 The electronic state is 1-A1.
 Alpha  occ. eigenvalues --  -20.56199  -1.38895  -0.72223  -0.61470  -0.51727
 Alpha virt. eigenvalues --    0.02928   0.04847   0.13438   0.15783   0.17797
 Alpha virt. eigenvalues --    0.18507   0.22912   0.24902   0.26927   0.29341
 Alpha virt. eigenvalues --    0.30643   0.37091   0.44552   0.47580   0.59683

 Mulliken charges:
               1
     1  O   -0.361851
     2  H    0.180926
     3  H    0.180926
 Sum of Mulliken charges =  -0.00000

 Dipole moment (field-independent basis, Debye):
    X=             -0.0000    Y=             -0.0000    Z=             -2.0943  Tot=              2.0943
 Quadrupole moment (field-independent basis, Debye-Ang):
   XX=             -7.4320   YY=             -4.7563   ZZ=             -5.9218
   XY=              0.0000   XZ=              0.0000   YZ=              0.0000

 .3248876\CCSD=-76.3244501\CCSD(T)=-76.3326831\RMSD=6.100e-09\PG=C02V [
 Normal termination of Gaussian 16 at Wed Feb  8 13:48:39 2023.
