 Gaussian 16, Revision C.01,
 Gaussian 16:  ES64L-G16RevC.01  3-Jul-2019

 ----------------------------------------
 #P CCSD(T)/aug-cc-pVDZ scf(maxcycle=200)
 ----------------------------------------

 --------------
 Gaussian input
 --------------
 Symbolic Z-matrix:
 Charge =  0 Multiplicity = 1

                         Standard orientation:
 ---------------------------------------------------------------------
 Center     Atomic      Atomic             Coordinates (Angstroms)
 Number     Number       Type             X           Y           Z
 ---------------------------------------------------------------------
      1          8           0        0.000000    0.112321   -0.000000
      2          1           0        0.807194   -0.493087    0.000000
      3          1           0       -0.807194   -0.405481    0.000000
 ---------------------------------------------------------------------

 SCF Done:  E(RHF) =  -76.0366274712     A.U. after   10 cycles
 E2 =    -0.2213796832D+00 EUMP2 =    -0.76258007154380D+02
 CCSD(T)
 CCSD(T)= -0.76271069362D+02

 The electronic state is 1-A'.
 Alpha  occ. eigenvalues --  -20.57861  -1.33983  -0.71564  -0.56885  -0.50549
 Alpha virt. eigenvalues --    0.03535   0.05725   0.17523   0.19734   0.21856
 Alpha virt. eigenvalues --    0.23029   0.28673   0.31993   0.38024   0.41216
 Alpha virt. eigenvalues --    0.43916   0.52911   0.63906   0.65742   0.81606

 Mulliken charges:
               1
     1  O   -0.370574
     2  H    0.213785
     3  H    0.156788
 Sum of Mulliken charges =  -0.00000

 Dipole moment (field-independent basis, Debye):
    X=             -0.0191    Y=             -1.9187    Z=              0.0000  Tot=              1.9188
 Quadrupole moment (field-independent basis, Debye-Ang):
   XX=             -3.9484   YY=             -6.4557   ZZ=             -7.6647
   XY=             -0.1647   XZ=              0.0000   YZ=             -0.0000

 .2658928\CCSD=-76.2656859\CCSD(T)=-76.2710694\RMSD=9.543e-09\PG=CS [SG
 Normal termination of Gaussian 16 at Wed Feb  8 14:50:50 2023.
