 Gaussian 16, Revision C.01,
 Gaussian 16:  ES64L-G16RevC.01  3-Jul-2019

 ---------------------------------
 #P B3LYP/6-31g* scf(maxcycle=200)
 ---------------------------------

 --------------
 Gaussian input
 --------------
 Symbolic Z-matrix:
 Charge =  0 Multiplicity = 1

                         Standard orientation:
 ---------------------------------------------------------------------
 Center     Atomic      Atomic             Coordinates (Angstroms)
 Number     Number       Type             X           Y           Z
 ---------------------------------------------------------------------
      1          8           0        0.000000    0.000000    0.101069
      2          1           0       -0.000000    0.755585   -0.404274
      3          1           0       -0.000000   -0.755585   -0.404274
 ---------------------------------------------------------------------

 SCF Done:  E(RB3LYP) =  -76.4005715176     A.U. after    9 cycles

 The electronic state is 1-A1.
 Alpha  occ. eigenvalues --  -19.12330  -1.01719  -0.55630  -0.35891  -0.29322
 Alpha virt. eigenvalues --    0.07993   0.16954   0.84297   0.88860   0.89222
 Alpha virt. eigenvalues --    0.89233   1.09016   1.18199   1.72483   1.74364
 Alpha virt. eigenvalues --    1.78101   2.37113   2.67732   3.59981

 Mulliken charges:
               1
     1  O   -0.795723
     2  H    0.397862
     3  H    0.397862
 Sum of Mulliken charges =  -0.00000

 Dipole moment (field-independent basis, Debye):
    X=             -0.0000    Y=             -0.0000    Z=             -1.9260  Tot=              1.9260
 Quadrupole moment (field-independent basis, Debye-Ang):
   XX=             -7.0807   YY=             -4.0135   ZZ=             -6.1653
   XY=              0.0000   XZ=              0.0000   YZ=              0.0000

 Normal termination of Gaussian 16 at Wed Feb  8 14:49:52 2023.
