 Gaussian 16, Revision C.01,
 Gaussian 16:  ES64L-G16RevC.01  3-Jul-2019

 ------------------------------
 #P HF/6-31g* scf(maxcycle=200)
 ------------------------------

 --------------
 Gaussian input
 --------------
 Symbolic Z-matrix:
 Charge =  0 Multiplicity = 1

                         Standard orientation:
 ---------------------------------------------------------------------
 Center     Atomic      Atomic             Coordinates (Angstroms)
 Number     Number       Type             X           Y           Z
 ---------------------------------------------------------------------
      1          8           0        0.000000    0.000000    0.106628
      2          1           0        0.000000    0.797147   -0.426512
      3          1           0       -0.000000   -0.797147   -0.426512
 ---------------------------------------------------------------------

 SCF Done:  E(RHF) =  -76.0089652239     A.U. after   10 cycles

 The electronic state is 1-A1.
 Alpha  occ. eigenvalues --  -20.55587  -1.33416  -0.71968  -0.55439  -0.49434
 Alpha virt. eigenvalues --    0.21083   0.30441   1.06259   1.10268   1.15895
 Alpha virt. eigenvalues --    1.17021   1.38798   1.40820   2.02819   2.04401
 Alpha virt. eigenvalues --    2.07741   2.63871   2.93699   3.98373

 Mulliken charges:
               1
     1  O   -0.882726
     2  H    0.441363
     3  H    0.441363
 Sum of Mulliken charges =  -0.00000

 Dipole moment (field-independent basis, Debye):
    X=             -0.0000    Y=              0.0000    Z=             -2.0823  Tot=              2.0823
 Quadrupole moment (field-independent basis, Debye-Ang):
   XX=             -7.2304   YY=             -3.7612   ZZ=             -6.1904
   XY=              0.0000   XZ=              0.0000   YZ=             -0.0000

 Normal termination of Gaussian 16 at Wed Feb  8 15:06:12 2023.
