 Gaussian 16, Revision C.01,
 Gaussian 16:  ES64L-G16RevC.01  3-Jul-2019

 -----------------------------------
 #P HF/aug-cc-pVDZ scf(maxcycle=200)
 -----------------------------------

 --------------
 Gaussian input
 --------------
 Symbolic Z-matrix:
 Charge =  0 Multiplicity = 1

                         Standard orientation:
 ---------------------------------------------------------------------
 Center     Atomic      Atomic             Coordinates (Angstroms)
 Number     Number       Type             X           Y           Z
 ---------------------------------------------------------------------
      1          8           0        0.000000    0.130462    0.000000
      2          1           0        0.700906   -0.448340    0.000000
      3          1           0       -0.700906   -0.595356    0.000000
 ---------------------------------------------------------------------

 SCF Done:  E(RHF) =  -76.0329138227     A.U. after   10 cycles

 The electronic state is 1-A'.
 Alpha  occ. eigenvalues --  -20.58125  -1.36588  -0.69867  -0.60413  -0.51233
 Alpha virt. eigenvalues --    0.03431   0.05883   0.17224   0.19779   0.22182
 Alpha virt. eigenvalues --    0.23456   0.28450   0.34845   0.38619   0.38998
 Alpha virt. eigenvalues --    0.42120   0.54886   0.63640   0.66330   0.79080

 Mulliken charges:
               1
     1  O   -0.286805
     2  H    0.091639
     3  H    0.195166
 Sum of Mulliken charges =  -0.00000

 Dipole moment (field-independent basis, Debye):
    X=              0.0576    Y=             -2.1567    Z=              0.0000  Tot=              2.1575
 Quadrupole moment (field-independent basis, Debye-Ang):
   XX=             -4.7336   YY=             -5.9329   ZZ=             -7.5727
   XY=              0.2137   XZ=              0.0000   YZ=              0.0000

 Normal termination of Gaussian 16 at Mon Feb 20 10:15:23 2023.
