 Gaussian 16, Revision C.01,
 Gaussian 16:  ES64L-G16RevC.01  3-Jul-2019

 ------------------------------------
 #P wB97XD/6-311g** scf(maxcycle=200)
 ------------------------------------

 --------------
 Gaussian input
 --------------
 Symbolic Z-matrix:
 Charge =  0 Multiplicity = 1

                         Standard orientation:
 ---------------------------------------------------------------------
 Center     Atomic      Atomic             Coordinates (Angstroms)
 Number     Number       Type             X           Y           Z
 ---------------------------------------------------------------------
      1          8           0        0.000000    0.000000    0.103255
      2          1           0        0.000000    0.866916   -0.413018
      3          1           0       -0.000000   -0.866916   -0.413018
 ---------------------------------------------------------------------

 SCF Done:  E(RwB97XD) =  -76.4128505793     A.U. after   12 cycles

 The electronic state is 1-A1.
 Alpha  occ. eigenvalues --  -19.22531  -1.07209  -0.61121  -0.43134  -0.37775
 Alpha virt. eigenvalues --    0.10838   0.18256   0.43993   0.47114   0.85234
 Alpha virt. eigenvalues --    0.85825   0.93790   1.15635   1.31029   1.52268
 Alpha virt. eigenvalues --    1.59579   1.61700   2.02895   2.04420   2.47426

 Mulliken charges:
               1
     1  O   -0.544146
     2  H    0.272073
     3  H    0.272073
 Sum of Mulliken charges =  -0.00000

 Dipole moment (field-independent basis, Debye):
    X=             -0.0000    Y=              0.0000    Z=             -1.8933  Tot=              1.8933
 Quadrupole moment (field-independent basis, Debye-Ang):
   XX=             -7.2963   YY=             -3.4631   ZZ=             -6.4287
   XY=              0.0000   XZ=              0.0000   YZ=             -0.0000

 Normal termination of Gaussian 16 at Wed Feb  8 14:43:10 2023.
