 Gaussian 16, Revision C.01,
 Gaussian 16:  ES64L-G16RevC.01  3-Jul-2019

 ----------------------------------------
 #P CCSD(T)/aug-cc-pVTZ scf(maxcycle=200)
 ----------------------------------------

 --------------
 Gaussian input
 --------------
 Symbolic Z-matrix:
 Charge =  0 Multiplicity = 1

                         Standard orientation:
 ---------------------------------------------------------------------
 Center     Atomic      Atomic             Coordinates (Angstroms)
 Number     Number       Type             X           Y           Z
 ---------------------------------------------------------------------
      1          8           0        0.000000    0.000000    0.111364
      2          1           0        0.000000    0.718494   -0.445455
      3          1           0       -0.000000   -0.718494   -0.445455
 ---------------------------------------------------------------------

 SCF Done:  E(RHF) =  -76.0585390731     A.U. after   10 cycles
 E2 =    -0.2645774723D+00 EUMP2 =    -0.76323116545348D+02
 CCSD(T)
 CCSD(T)= -0.76336420663D+02

 The electronic state is 1-A1.
 Alpha  occ. eigenvalues --  -20.55829  -1.38020  -0.74514  -0.59428  -0.51470
 Alpha virt. eigenvalues --    0.02999   0.04786   0.13595   0.15602   0.17652
 Alpha virt. eigenvalues --    0.18263   0.23180   0.24755   0.26579   0.30319
 Alpha virt. eigenvalues --    0.31222   0.36787   0.44834   0.47454   0.60357

 Mulliken charges:
               1
     1  O   -0.351075
     2  H    0.175538
     3  H    0.175538
 Sum of Mulliken charges =   0.00000

 Dipole moment (field-independent basis, Debye):
    X=             -0.0000    Y=              0.0000    Z=             -1.9425  Tot=              1.9425
 Quadrupole moment (field-independent basis, Debye-Ang):
   XX=             -7.4438   YY=             -4.3534   ZZ=             -6.2087
   XY=              0.0000   XZ=              0.0000   YZ=             -0.0000

 3286955\CCSD=-76.3282675\CCSD(T)=-76.3364207\RMSD=2.270e-09\PG=C02V [C
 Normal termination of Gaussian 16 at Wed Feb  8 13:48:08 2023.
