 Gaussian 16, Revision C.01,
 Gaussian 16:  ES64L-G16RevC.01  3-Jul-2019

 ----------------------------------------
 #P CCSD(T)/aug-cc-pVTZ scf(maxcycle=200)
 ----------------------------------------

 --------------
 Gaussian input
 --------------
 Symbolic Z-matrix:
 Charge =  0 Multiplicity = 1

                         Standard orientation:
 ---------------------------------------------------------------------
 Center     Atomic      Atomic             Coordinates (Angstroms)
 Number     Number       Type             X           Y           Z
 ---------------------------------------------------------------------
      1          8           0        0.000000    0.000000    0.120812
      2          1           0        0.000000    0.808202   -0.483250
      3          1           0       -0.000000   -0.808202   -0.483250
 ---------------------------------------------------------------------

 SCF Done:  E(RHF) =  -76.0523600416     A.U. after   10 cycles
 E2 =    -0.2724059587D+00 EUMP2 =    -0.76324766000343D+02
 CCSD(T)
 CCSD(T)= -0.76338173814D+02

 The electronic state is 1-A1.
 Alpha  occ. eigenvalues --  -20.57506  -1.32725  -0.69375  -0.57133  -0.50576
 Alpha virt. eigenvalues --    0.02884   0.04733   0.13587   0.16075   0.17266
 Alpha virt. eigenvalues --    0.18233   0.22337   0.24259   0.26417   0.30026
 Alpha virt. eigenvalues --    0.30988   0.36397   0.42710   0.45639   0.59831

 Mulliken charges:
               1
     1  O   -0.510318
     2  H    0.255159
     3  H    0.255159
 Sum of Mulliken charges =  -0.00000

 Dipole moment (field-independent basis, Debye):
    X=             -0.0000    Y=              0.0000    Z=             -1.9904  Tot=              1.9904
 Quadrupole moment (field-independent basis, Debye-Ang):
   XX=             -7.6790   YY=             -4.0281   ZZ=             -6.3351
   XY=              0.0000   XZ=              0.0000   YZ=              0.0000

 95595\CCSD=-76.3290249\CCSD(T)=-76.3381738\RMSD=6.180e-09\PG=C02V [C2(
 Normal termination of Gaussian 16 at Wed Feb  8 13:58:12 2023.
