 Gaussian 16, Revision C.01,
 Gaussian 16:  ES64L-G16RevC.01  3-Jul-2019

 ------------------------------------
 #P wB97XD/6-311g** scf(maxcycle=200)
 ------------------------------------

 --------------
 Gaussian input
 --------------
 Symbolic Z-matrix:
 Charge =  0 Multiplicity = 1

                         Standard orientation:
 ---------------------------------------------------------------------
 Center     Atomic      Atomic             Coordinates (Angstroms)
 Number     Number       Type             X           Y           Z
 ---------------------------------------------------------------------
      1          8           0        0.000000    0.000000    0.100213
      2          1           0        0.000000    0.875794   -0.400852
      3          1           0       -0.000000   -0.875794   -0.400852
 ---------------------------------------------------------------------

 SCF Done:  E(RwB97XD) =  -76.4114221603     A.U. after   12 cycles

 The electronic state is 1-A1.
 Alpha  occ. eigenvalues --  -19.22392  -1.07065  -0.61360  -0.42756  -0.37699
 Alpha virt. eigenvalues --    0.10817   0.18282   0.43409   0.47604   0.85260
 Alpha virt. eigenvalues --    0.85871   0.93704   1.15650   1.30690   1.53898
 Alpha virt. eigenvalues --    1.60236   1.60660   2.03676   2.04041   2.48812

 Mulliken charges:
               1
     1  O   -0.550584
     2  H    0.275292
     3  H    0.275292
 Sum of Mulliken charges =  -0.00000

 Dipole moment (field-independent basis, Debye):
    X=             -0.0000    Y=              0.0000    Z=             -1.8554  Tot=              1.8554
 Quadrupole moment (field-independent basis, Debye-Ang):
   XX=             -7.2985   YY=             -3.3698   ZZ=             -6.4799
   XY=              0.0000   XZ=              0.0000   YZ=             -0.0000

 Normal termination of Gaussian 16 at Wed Feb  8 14:43:10 2023.
