 Gaussian 16, Revision C.01,
 Gaussian 16:  ES64L-G16RevC.01  3-Jul-2019

 ------------------------------------
 #P wB97XD/6-311g** scf(maxcycle=200)
 ------------------------------------

 --------------
 Gaussian input
 --------------
 Symbolic Z-matrix:
 Charge =  0 Multiplicity = 1

                         Standard orientation:
 ---------------------------------------------------------------------
 Center     Atomic      Atomic             Coordinates (Angstroms)
 Number     Number       Type             X           Y           Z
 ---------------------------------------------------------------------
      1          8           0        0.000000   -0.000000    0.144611
      2          1           0       -0.000000    0.703755   -0.578445
      3          1           0       -0.000000   -0.703755   -0.578445
 ---------------------------------------------------------------------

 SCF Done:  E(RwB97XD) =  -76.4139480169     A.U. after   12 cycles

 The electronic state is 1-A1.
 Alpha  occ. eigenvalues --  -19.24207  -1.09487  -0.56252  -0.49157  -0.38743
 Alpha virt. eigenvalues --    0.10354   0.17978   0.42341   0.50397   0.85251
 Alpha virt. eigenvalues --    0.86394   0.95334   1.14222   1.18326   1.39991
 Alpha virt. eigenvalues --    1.44901   1.81007   1.91721   2.10598   2.39002

 Mulliken charges:
               1
     1  O   -0.437651
     2  H    0.218826
     3  H    0.218826
 Sum of Mulliken charges =  -0.00000

 Dipole moment (field-independent basis, Debye):
    X=             -0.0000    Y=              0.0000    Z=             -2.3100  Tot=              2.3100
 Quadrupole moment (field-independent basis, Debye-Ang):
   XX=             -7.2645   YY=             -4.8825   ZZ=             -5.5906
   XY=              0.0000   XZ=              0.0000   YZ=              0.0000

 Normal termination of Gaussian 16 at Wed Feb  8 14:42:51 2023.
