 Gaussian 16, Revision C.01,
 Gaussian 16:  ES64L-G16RevC.01  3-Jul-2019

 ----------------------------------------
 #P CCSD(T)/aug-cc-pVDZ scf(maxcycle=200)
 ----------------------------------------

 --------------
 Gaussian input
 --------------
 Symbolic Z-matrix:
 Charge =  0 Multiplicity = 1

                         Standard orientation:
 ---------------------------------------------------------------------
 Center     Atomic      Atomic             Coordinates (Angstroms)
 Number     Number       Type             X           Y           Z
 ---------------------------------------------------------------------
      1          8           0        0.000000    0.104169    0.000000
      2          1           0        0.801514   -0.508738    0.000000
      3          1           0       -0.801514   -0.324615   -0.000000
 ---------------------------------------------------------------------

 SCF Done:  E(RHF) =  -76.0341386221     A.U. after   10 cycles
 E2 =    -0.2190765080D+00 EUMP2 =    -0.76253215130018D+02
 CCSD(T)
 CCSD(T)= -0.76266232143D+02

 The electronic state is 1-A'.
 Alpha  occ. eigenvalues --  -20.57217  -1.35133  -0.73692  -0.56539  -0.50648
 Alpha virt. eigenvalues --    0.03597   0.05706   0.17496   0.19550   0.21862
 Alpha virt. eigenvalues --    0.22849   0.29340   0.32083   0.37959   0.42445
 Alpha virt. eigenvalues --    0.44993   0.52892   0.63912   0.66330   0.83558

 Mulliken charges:
               1
     1  O   -0.326181
     2  H    0.222329
     3  H    0.103852
 Sum of Mulliken charges =  -0.00000

 Dipole moment (field-independent basis, Debye):
    X=             -0.0330    Y=             -1.8334    Z=              0.0000  Tot=              1.8337
 Quadrupole moment (field-independent basis, Debye-Ang):
   XX=             -3.8738   YY=             -6.5214   ZZ=             -7.6121
   XY=             -0.3579   XZ=              0.0000   YZ=             -0.0000

 .261241\CCSD=-76.2610405\CCSD(T)=-76.2662321\RMSD=8.281e-09\PG=CS [SG(
 Normal termination of Gaussian 16 at Wed Feb  8 14:50:30 2023.
