 Gaussian 16, Revision C.01,
 Gaussian 16:  ES64L-G16RevC.01  3-Jul-2019

 ------------------------------------
 #P wB97XD/6-311g** scf(maxcycle=200)
 ------------------------------------

 --------------
 Gaussian input
 --------------
 Symbolic Z-matrix:
 Charge =  0 Multiplicity = 1

                         Standard orientation:
 ---------------------------------------------------------------------
 Center     Atomic      Atomic             Coordinates (Angstroms)
 Number     Number       Type             X           Y           Z
 ---------------------------------------------------------------------
      1          8           0        0.000000   -0.000000    0.115098
      2          1           0       -0.000000    0.828791   -0.460391
      3          1           0       -0.000000   -0.828791   -0.460391
 ---------------------------------------------------------------------

 SCF Done:  E(RwB97XD) =  -76.4171198967     A.U. after   12 cycles

 The electronic state is 1-A1.
 Alpha  occ. eigenvalues --  -19.23050  -1.07785  -0.60056  -0.44678  -0.38060
 Alpha virt. eigenvalues --    0.10857   0.18155   0.45363   0.46346   0.85259
 Alpha virt. eigenvalues --    0.85654   0.94203   1.15775   1.32652   1.43743
 Alpha virt. eigenvalues --    1.56586   1.66255   1.98526   2.07124   2.41740

 Mulliken charges:
               1
     1  O   -0.516804
     2  H    0.258402
     3  H    0.258402
 Sum of Mulliken charges =  -0.00000

 Dipole moment (field-independent basis, Debye):
    X=             -0.0000    Y=             -0.0000    Z=             -2.0314  Tot=              2.0314
 Quadrupole moment (field-independent basis, Debye-Ang):
   XX=             -7.2871   YY=             -3.8412   ZZ=             -6.2154
   XY=              0.0000   XZ=              0.0000   YZ=              0.0000

 Normal termination of Gaussian 16 at Wed Feb  8 14:43:06 2023.
