 Gaussian 16, Revision C.01,
 Gaussian 16:  ES64L-G16RevC.01  3-Jul-2019

 ------------------------------------
 #P wB97XD/6-311g** scf(maxcycle=200)
 ------------------------------------

 --------------
 Gaussian input
 --------------
 Symbolic Z-matrix:
 Charge =  0 Multiplicity = 1

                         Standard orientation:
 ---------------------------------------------------------------------
 Center     Atomic      Atomic             Coordinates (Angstroms)
 Number     Number       Type             X           Y           Z
 ---------------------------------------------------------------------
      1          8           0        0.000000    0.000000    0.095247
      2          1           0        0.000000    0.832395   -0.380988
      3          1           0       -0.000000   -0.832395   -0.380988
 ---------------------------------------------------------------------

 SCF Done:  E(RwB97XD) =  -76.4175059826     A.U. after   12 cycles

 The electronic state is 1-A1.
 Alpha  occ. eigenvalues --  -19.21680  -1.09032  -0.63462  -0.43188  -0.38135
 Alpha virt. eigenvalues --    0.12109   0.19282   0.45962   0.50049   0.85093
 Alpha virt. eigenvalues --    0.85786   0.94355   1.15070   1.31114   1.54103
 Alpha virt. eigenvalues --    1.62142   1.64463   2.08495   2.10558   2.48374

 Mulliken charges:
               1
     1  O   -0.543373
     2  H    0.271687
     3  H    0.271687
 Sum of Mulliken charges =  -0.00000

 Dipole moment (field-independent basis, Debye):
    X=             -0.0000    Y=              0.0000    Z=             -1.8364  Tot=              1.8364
 Quadrupole moment (field-independent basis, Debye-Ang):
   XX=             -7.1881   YY=             -3.5297   ZZ=             -6.4339
   XY=              0.0000   XZ=              0.0000   YZ=             -0.0000

 Normal termination of Gaussian 16 at Wed Feb  8 14:41:43 2023.
