 Gaussian 16, Revision C.01,
 Gaussian 16:  ES64L-G16RevC.01  3-Jul-2019

 ---------------------------------
 #P B3LYP/6-31g* scf(maxcycle=200)
 ---------------------------------

 --------------
 Gaussian input
 --------------
 Symbolic Z-matrix:
 Charge =  0 Multiplicity = 1

                         Standard orientation:
 ---------------------------------------------------------------------
 Center     Atomic      Atomic             Coordinates (Angstroms)
 Number     Number       Type             X           Y           Z
 ---------------------------------------------------------------------
      1          8           0        0.000000    0.119572    0.000000
      2          1           0        0.716953   -0.439230    0.000000
      3          1           0       -0.716953   -0.517343    0.000000
 ---------------------------------------------------------------------

 SCF Done:  E(RB3LYP) =  -76.4045700709     A.U. after    9 cycles

 The electronic state is 1-A'.
 Alpha  occ. eigenvalues --  -19.13360  -1.01731  -0.52451  -0.38124  -0.29494
 Alpha virt. eigenvalues --    0.07019   0.16017   0.77322   0.88335   0.88982
 Alpha virt. eigenvalues --    0.92814   1.07514   1.21073   1.71117   1.74101
 Alpha virt. eigenvalues --    1.77045   2.32028   2.63493   3.56392

 Mulliken charges:
               1
     1  O   -0.774271
     2  H    0.390412
     3  H    0.383858
 Sum of Mulliken charges =  -0.00000

 Dipole moment (field-independent basis, Debye):
    X=              0.0483    Y=             -2.1301    Z=              0.0000  Tot=              2.1307
 Quadrupole moment (field-independent basis, Debye-Ang):
   XX=             -4.4742   YY=             -5.8891   ZZ=             -7.1355
   XY=              0.1041   XZ=              0.0000   YZ=              0.0000

 Normal termination of Gaussian 16 at Wed Feb  8 14:49:59 2023.
