 Gaussian 16, Revision C.01,
 Gaussian 16:  ES64L-G16RevC.01  3-Jul-2019

 -----------------------------------
 #P HF/aug-cc-pVDZ scf(maxcycle=200)
 -----------------------------------

 --------------
 Gaussian input
 --------------
 Symbolic Z-matrix:
 Charge =  0 Multiplicity = 1

                         Standard orientation:
 ---------------------------------------------------------------------
 Center     Atomic      Atomic             Coordinates (Angstroms)
 Number     Number       Type             X           Y           Z
 ---------------------------------------------------------------------
      1          8           0        0.000000    0.000000    0.139759
      2          1           0       -0.000000    0.656786   -0.559036
      3          1           0       -0.000000   -0.656786   -0.559036
 ---------------------------------------------------------------------

 SCF Done:  E(RHF) =  -76.0309344329     A.U. after   10 cycles

 The electronic state is 1-A1.
 Alpha  occ. eigenvalues --  -20.58459  -1.37044  -0.67894  -0.62195  -0.51418
 Alpha virt. eigenvalues --    0.03356   0.05951   0.17137   0.19893   0.22300
 Alpha virt. eigenvalues --    0.23647   0.28337   0.35991   0.37292   0.39633
 Alpha virt. eigenvalues --    0.40909   0.55596   0.64024   0.66054   0.77418

 Mulliken charges:
               1
     1  O   -0.293643
     2  H    0.146822
     3  H    0.146822
 Sum of Mulliken charges =  -0.00000

 Dipole moment (field-independent basis, Debye):
    X=             -0.0000    Y=             -0.0000    Z=             -2.2711  Tot=              2.2711
 Quadrupole moment (field-independent basis, Debye-Ang):
   XX=             -7.5638   YY=             -5.0746   ZZ=             -5.7142
   XY=              0.0000   XZ=              0.0000   YZ=             -0.0000

 Normal termination of Gaussian 16 at Mon Feb 20 10:28:01 2023.
