 Gaussian 16, Revision C.01,
 Gaussian 16:  ES64L-G16RevC.01  3-Jul-2019

 ----------------------------------------
 #P PBE1PBE/aug-cc-pVDZ scf(maxcycle=200)
 ----------------------------------------

 --------------
 Gaussian input
 --------------
 Symbolic Z-matrix:
 Charge =  0 Multiplicity = 1

                         Standard orientation:
 ---------------------------------------------------------------------
 Center     Atomic      Atomic             Coordinates (Angstroms)
 Number     Number       Type             X           Y           Z
 ---------------------------------------------------------------------
      1          8           0        0.000000    0.123310    0.000000
      2          1           0        0.766259   -0.453342    0.000000
      3          1           0       -0.766259   -0.533141    0.000000
 ---------------------------------------------------------------------

 SCF Done:  E(RPBE1PBE) =  -76.3579113360     A.U. after    9 cycles

 The electronic state is 1-A'.
 Alpha  occ. eigenvalues --  -19.23505  -1.03928  -0.53848  -0.41273  -0.33155
 Alpha virt. eigenvalues --   -0.01447   0.03165   0.11059   0.13247   0.14101
 Alpha virt. eigenvalues --    0.16074   0.18739   0.23813   0.29015   0.29761
 Alpha virt. eigenvalues --    0.32779   0.45110   0.50577   0.53524   0.63238

 Mulliken charges:
               1
     1  O   -0.272125
     2  H    0.110813
     3  H    0.161312
 Sum of Mulliken charges =   0.00000

 Dipole moment (field-independent basis, Debye):
    X=              0.0246    Y=             -1.9091    Z=              0.0000  Tot=              1.9093
 Quadrupole moment (field-independent basis, Debye-Ang):
   XX=             -4.5114   YY=             -6.3776   ZZ=             -7.8040
   XY=              0.1301   XZ=              0.0000   YZ=              0.0000

 Normal termination of Gaussian 16 at Wed Mar 29 21:52:22 2023.
