 Gaussian 16, Revision C.01,
 Gaussian 16:  ES64L-G16RevC.01  3-Jul-2019

 ------------------------------
 #P HF/6-31g* scf(maxcycle=200)
 ------------------------------

 --------------
 Gaussian input
 --------------
 Symbolic Z-matrix:
 Charge =  0 Multiplicity = 1

                         Standard orientation:
 ---------------------------------------------------------------------
 Center     Atomic      Atomic             Coordinates (Angstroms)
 Number     Number       Type             X           Y           Z
 ---------------------------------------------------------------------
      1          8           0        0.000000    0.117887    0.000000
      2          1           0        0.787213   -0.429814    0.000000
      3          1           0       -0.787213   -0.513283    0.000000
 ---------------------------------------------------------------------

 SCF Done:  E(RHF) =  -76.0069011143     A.U. after   10 cycles

 The electronic state is 1-A'.
 Alpha  occ. eigenvalues --  -20.56431  -1.32741  -0.69604  -0.56194  -0.49539
 Alpha virt. eigenvalues --    0.20429   0.29731   1.01598   1.11259   1.15404
 Alpha virt. eigenvalues --    1.16843   1.37602   1.42524   2.03220   2.03850
 Alpha virt. eigenvalues --    2.07472   2.58716   2.90707   3.96054

 Mulliken charges:
               1
     1  O   -0.866087
     2  H    0.436212
     3  H    0.429875
 Sum of Mulliken charges =  -0.00000

 Dipole moment (field-independent basis, Debye):
    X=              0.0412    Y=             -2.2122    Z=              0.0000  Tot=              2.2126
 Quadrupole moment (field-independent basis, Debye-Ang):
   XX=             -3.9901   YY=             -6.0328   ZZ=             -7.2812
   XY=              0.1382   XZ=              0.0000   YZ=              0.0000

 Normal termination of Gaussian 16 at Wed Feb  8 15:06:33 2023.
