 Gaussian 16, Revision C.01,
 Gaussian 16:  ES64L-G16RevC.01  3-Jul-2019

 ----------------------------------------
 #P CCSD(T)/aug-cc-pVDZ scf(maxcycle=200)
 ----------------------------------------

 --------------
 Gaussian input
 --------------
 Symbolic Z-matrix:
 Charge =  0 Multiplicity = 1

                         Standard orientation:
 ---------------------------------------------------------------------
 Center     Atomic      Atomic             Coordinates (Angstroms)
 Number     Number       Type             X           Y           Z
 ---------------------------------------------------------------------
      1          8           0        0.000000    0.000000    0.114826
      2          1           0       -0.000000    0.768152   -0.459303
      3          1           0       -0.000000   -0.768152   -0.459303
 ---------------------------------------------------------------------

 SCF Done:  E(RHF) =  -76.0413135818     A.U. after   10 cycles
 E2 =    -0.2193817168D+00 EUMP2 =    -0.76260695298666D+02
 CCSD(T)
 CCSD(T)= -0.76273679801D+02

 The electronic state is 1-A1.
 Alpha  occ. eigenvalues --  -20.57667  -1.35434  -0.72208  -0.58148  -0.50873
 Alpha virt. eigenvalues --    0.03557   0.05775   0.17425   0.19654   0.22222
 Alpha virt. eigenvalues --    0.23088   0.29147   0.32829   0.38458   0.40765
 Alpha virt. eigenvalues --    0.43647   0.53700   0.64877   0.65768   0.81615

 Mulliken charges:
               1
     1  O   -0.305817
     2  H    0.152909
     3  H    0.152909
 Sum of Mulliken charges =  -0.00000

 Dipole moment (field-independent basis, Debye):
    X=             -0.0000    Y=             -0.0000    Z=             -1.9681  Tot=              1.9681
 Quadrupole moment (field-independent basis, Debye-Ang):
   XX=             -7.5973   YY=             -4.1896   ZZ=             -6.3243
   XY=              0.0000   XZ=              0.0000   YZ=              0.0000

 2686703\CCSD=-76.2684703\CCSD(T)=-76.2736798\RMSD=5.709e-09\PG=C02V [C
 Normal termination of Gaussian 16 at Wed Feb  8 14:49:19 2023.
