 Gaussian 16, Revision C.01,
 Gaussian 16:  ES64L-G16RevC.01  3-Jul-2019

 ----------------------------------------
 #P PBE1PBE/aug-cc-pVDZ scf(maxcycle=200)
 ----------------------------------------

 --------------
 Gaussian input
 --------------
 Symbolic Z-matrix:
 Charge =  0 Multiplicity = 1

                         Standard orientation:
 ---------------------------------------------------------------------
 Center     Atomic      Atomic             Coordinates (Angstroms)
 Number     Number       Type             X           Y           Z
 ---------------------------------------------------------------------
      1          8           0        0.000000   -0.000000    0.129106
      2          1           0       -0.000000    0.775480   -0.516426
      3          1           0       -0.000000   -0.775480   -0.516426
 ---------------------------------------------------------------------

 SCF Done:  E(RPBE1PBE) =  -76.3559749359     A.U. after    8 cycles

 The electronic state is 1-A1.
 Alpha  occ. eigenvalues --  -19.23960  -1.02990  -0.52572  -0.41428  -0.33003
 Alpha virt. eigenvalues --   -0.01677   0.03051   0.10905   0.13314   0.14039
 Alpha virt. eigenvalues --    0.15209   0.18519   0.23778   0.28939   0.29026
 Alpha virt. eigenvalues --    0.32115   0.44879   0.50076   0.52221   0.62782

 Mulliken charges:
               1
     1  O   -0.320402
     2  H    0.160201
     3  H    0.160201
 Sum of Mulliken charges =  -0.00000

 Dipole moment (field-independent basis, Debye):
    X=             -0.0000    Y=             -0.0000    Z=             -1.9490  Tot=              1.9490
 Quadrupole moment (field-independent basis, Debye-Ang):
   XX=             -7.8599   YY=             -4.5490   ZZ=             -6.3323
   XY=              0.0000   XZ=              0.0000   YZ=              0.0000

 Normal termination of Gaussian 16 at Wed Mar 29 21:53:43 2023.
