 Gaussian 16, Revision C.01,
 Gaussian 16:  ES64L-G16RevC.01  3-Jul-2019

 -----------------------------------
 #P HF/aug-cc-pVDZ scf(maxcycle=200)
 -----------------------------------

 --------------
 Gaussian input
 --------------
 Symbolic Z-matrix:
 Charge =  0 Multiplicity = 1

                         Standard orientation:
 ---------------------------------------------------------------------
 Center     Atomic      Atomic             Coordinates (Angstroms)
 Number     Number       Type             X           Y           Z
 ---------------------------------------------------------------------
      1          8           0        0.000000    0.132889    0.000000
      2          1           0        0.689555   -0.459390    0.000000
      3          1           0       -0.689555   -0.603721    0.000000
 ---------------------------------------------------------------------

 SCF Done:  E(RHF) =  -76.0315459089     A.U. after   10 cycles

 The electronic state is 1-A'.
 Alpha  occ. eigenvalues --  -20.58200  -1.36754  -0.69438  -0.60805  -0.51287
 Alpha virt. eigenvalues --    0.03409   0.05901   0.17191   0.19803   0.22181
 Alpha virt. eigenvalues --    0.23511   0.28392   0.35157   0.38288   0.39094
 Alpha virt. eigenvalues --    0.41880   0.55072   0.63570   0.66310   0.78723

 Mulliken charges:
               1
     1  O   -0.286572
     2  H    0.092348
     3  H    0.194224
 Sum of Mulliken charges =  -0.00000

 Dipole moment (field-independent basis, Debye):
    X=              0.0595    Y=             -2.1858    Z=              0.0000  Tot=              2.1866
 Quadrupole moment (field-independent basis, Debye-Ang):
   XX=             -4.8212   YY=             -5.8733   ZZ=             -7.5695
   XY=              0.2027   XZ=              0.0000   YZ=              0.0000

 Normal termination of Gaussian 16 at Mon Feb 20 10:15:22 2023.
