 Gaussian 16, Revision C.01,
 Gaussian 16:  ES64L-G16RevC.01  3-Jul-2019

 ---------------------------------
 #P B3LYP/6-31g* scf(maxcycle=200)
 ---------------------------------

 --------------
 Gaussian input
 --------------
 Symbolic Z-matrix:
 Charge =  0 Multiplicity = 1

                         Standard orientation:
 ---------------------------------------------------------------------
 Center     Atomic      Atomic             Coordinates (Angstroms)
 Number     Number       Type             X           Y           Z
 ---------------------------------------------------------------------
      1          8           0        0.000000    0.117887    0.000000
      2          1           0        0.787213   -0.429814    0.000000
      3          1           0       -0.787213   -0.513283    0.000000
 ---------------------------------------------------------------------

 SCF Done:  E(RB3LYP) =  -76.4071967301     A.U. after    9 cycles

 The electronic state is 1-A'.
 Alpha  occ. eigenvalues --  -19.13915  -0.98959  -0.51599  -0.36546  -0.28919
 Alpha virt. eigenvalues --    0.05756   0.14399   0.77138   0.84270   0.89161
 Alpha virt. eigenvalues --    0.89321   1.06620   1.18106   1.74071   1.74750
 Alpha virt. eigenvalues --    1.78552   2.26016   2.55889   3.54944

 Mulliken charges:
               1
     1  O   -0.774874
     2  H    0.391888
     3  H    0.382986
 Sum of Mulliken charges =  -0.00000

 Dipole moment (field-independent basis, Debye):
    X=              0.0480    Y=             -2.0555    Z=              0.0000  Tot=              2.0560
 Quadrupole moment (field-independent basis, Debye-Ang):
   XX=             -4.1425   YY=             -6.0604   ZZ=             -7.2324
   XY=              0.1258   XZ=              0.0000   YZ=              0.0000

 Normal termination of Gaussian 16 at Wed Feb  8 14:51:31 2023.
