 Gaussian 16, Revision C.01,
 Gaussian 16:  ES64L-G16RevC.01  3-Jul-2019

 ----------------------------------------
 #P CCSD(T)/aug-cc-pVDZ scf(maxcycle=200)
 ----------------------------------------

 --------------
 Gaussian input
 --------------
 Symbolic Z-matrix:
 Charge =  0 Multiplicity = 1

                         Standard orientation:
 ---------------------------------------------------------------------
 Center     Atomic      Atomic             Coordinates (Angstroms)
 Number     Number       Type             X           Y           Z
 ---------------------------------------------------------------------
      1          8           0        0.000000    0.000000    0.101069
      2          1           0       -0.000000    0.755585   -0.404274
      3          1           0       -0.000000   -0.755585   -0.404274
 ---------------------------------------------------------------------

 SCF Done:  E(RHF) =  -76.0382782576     A.U. after   10 cycles
 E2 =    -0.2149016851D+00 EUMP2 =    -0.76253179942733D+02
 CCSD(T)
 CCSD(T)= -0.76266053797D+02

 The electronic state is 1-A1.
 Alpha  occ. eigenvalues --  -20.56534  -1.37706  -0.76299  -0.57899  -0.51168
 Alpha virt. eigenvalues --    0.03682   0.05747   0.17352   0.19313   0.22460
 Alpha virt. eigenvalues --    0.22751   0.30890   0.32701   0.38517   0.42726
 Alpha virt. eigenvalues --    0.45353   0.53844   0.65602   0.66305   0.86200

 Mulliken charges:
               1
     1  O   -0.205038
     2  H    0.102519
     3  H    0.102519
 Sum of Mulliken charges =   0.00000

 Dipole moment (field-independent basis, Debye):
    X=             -0.0000    Y=             -0.0000    Z=             -1.8283  Tot=              1.8283
 Quadrupole moment (field-independent basis, Debye-Ang):
   XX=             -7.4860   YY=             -4.0766   ZZ=             -6.4559
   XY=              0.0000   XZ=              0.0000   YZ=              0.0000

 .261405\CCSD=-76.2612146\CCSD(T)=-76.2660538\RMSD=3.148e-09\PG=C02V [C
 Normal termination of Gaussian 16 at Wed Feb  8 14:47:11 2023.
