 Gaussian 16, Revision C.01,
 Gaussian 16:  ES64L-G16RevC.01  3-Jul-2019

 ------------------------------
 #P HF/6-31g* scf(maxcycle=200)
 ------------------------------

 --------------
 Gaussian input
 --------------
 Symbolic Z-matrix:
 Charge =  0 Multiplicity = 1

                         Standard orientation:
 ---------------------------------------------------------------------
 Center     Atomic      Atomic             Coordinates (Angstroms)
 Number     Number       Type             X           Y           Z
 ---------------------------------------------------------------------
      1          8           0        0.000000    0.132889   -0.000000
      2          1           0        0.689555   -0.603721    0.000000
      3          1           0       -0.689555   -0.459390    0.000000
 ---------------------------------------------------------------------

 SCF Done:  E(RHF) =  -76.0004068571     A.U. after   10 cycles

 The electronic state is 1-A'.
 Alpha  occ. eigenvalues --  -20.56666  -1.35456  -0.68313  -0.59452  -0.50277
 Alpha virt. eigenvalues --    0.20443   0.30328   0.97133   1.12841   1.16452
 Alpha virt. eigenvalues --    1.21465   1.37878   1.48310   1.99156   2.04132
 Alpha virt. eigenvalues --    2.05595   2.62432   2.92383   3.94615

 Mulliken charges:
               1
     1  O   -0.841957
     2  H    0.413475
     3  H    0.428482
 Sum of Mulliken charges =   0.00000

 Dipole moment (field-independent basis, Debye):
    X=             -0.0958    Y=             -2.4219    Z=              0.0000  Tot=              2.4238
 Quadrupole moment (field-independent basis, Debye-Ang):
   XX=             -4.7052   YY=             -5.6237   ZZ=             -7.2314
   XY=             -0.1798   XZ=              0.0000   YZ=             -0.0000

 Normal termination of Gaussian 16 at Wed Feb  8 15:06:42 2023.
