 Gaussian 16, Revision C.01,
 Gaussian 16:  ES64L-G16RevC.01  3-Jul-2019

 ----------------------------------------
 #P PBE1PBE/aug-cc-pVDZ scf(maxcycle=200)
 ----------------------------------------

 --------------
 Gaussian input
 --------------
 Symbolic Z-matrix:
 Charge =  0 Multiplicity = 1

                         Standard orientation:
 ---------------------------------------------------------------------
 Center     Atomic      Atomic             Coordinates (Angstroms)
 Number     Number       Type             X           Y           Z
 ---------------------------------------------------------------------
      1          8           0        0.000000    0.000000    0.100213
      2          1           0        0.000000    0.875794   -0.400852
      3          1           0       -0.000000   -0.875794   -0.400852
 ---------------------------------------------------------------------

 SCF Done:  E(RPBE1PBE) =  -76.3493602636     A.U. after    8 cycles

 The electronic state is 1-A1.
 Alpha  occ. eigenvalues --  -19.23061  -1.01796  -0.55672  -0.37761  -0.32545
 Alpha virt. eigenvalues --   -0.01623   0.02866   0.10885   0.13022   0.13177
 Alpha virt. eigenvalues --    0.15424   0.19575   0.21499   0.27779   0.32954
 Alpha virt. eigenvalues --    0.35206   0.42545   0.50032   0.52174   0.66782

 Mulliken charges:
               1
     1  O   -0.373076
     2  H    0.186538
     3  H    0.186538
 Sum of Mulliken charges =  -0.00000

 Dipole moment (field-independent basis, Debye):
    X=             -0.0000    Y=              0.0000    Z=             -1.6221  Tot=              1.6221
 Quadrupole moment (field-independent basis, Debye-Ang):
   XX=             -7.9105   YY=             -3.6470   ZZ=             -6.9630
   XY=              0.0000   XZ=              0.0000   YZ=             -0.0000

 Normal termination of Gaussian 16 at Mon Mar 20 17:36:00 2023.
