 Gaussian 16, Revision C.01,
 Gaussian 16:  ES64L-G16RevC.01  3-Jul-2019

 -----------------------------------
 #P HF/aug-cc-pVDZ scf(maxcycle=200)
 -----------------------------------

 --------------
 Gaussian input
 --------------
 Symbolic Z-matrix:
 Charge =  0 Multiplicity = 1

                         Standard orientation:
 ---------------------------------------------------------------------
 Center     Atomic      Atomic             Coordinates (Angstroms)
 Number     Number       Type             X           Y           Z
 ---------------------------------------------------------------------
      1          8           0        0.000000    0.000000    0.117489
      2          1           0        0.000000    0.758015   -0.469958
      3          1           0       -0.000000   -0.758015   -0.469958
 ---------------------------------------------------------------------

 SCF Done:  E(RHF) =  -76.0413186757     A.U. after   10 cycles

 The electronic state is 1-A1.
 Alpha  occ. eigenvalues --  -20.57759  -1.35577  -0.71820  -0.58543  -0.50931
 Alpha virt. eigenvalues --    0.03540   0.05792   0.17401   0.19677   0.22253
 Alpha virt. eigenvalues --    0.23151   0.29027   0.33132   0.38571   0.40373
 Alpha virt. eigenvalues --    0.43347   0.53901   0.64820   0.65816   0.81091

 Mulliken charges:
               1
     1  O   -0.301471
     2  H    0.150736
     3  H    0.150736
 Sum of Mulliken charges =  -0.00000

 Dipole moment (field-independent basis, Debye):
    X=             -0.0000    Y=              0.0000    Z=             -2.0011  Tot=              2.0011
 Quadrupole moment (field-independent basis, Debye-Ang):
   XX=             -7.5933   YY=             -4.2775   ZZ=             -6.2632
   XY=              0.0000   XZ=              0.0000   YZ=             -0.0000

 Normal termination of Gaussian 16 at Mon Feb 20 10:28:12 2023.
