 Gaussian 16, Revision C.01,
 Gaussian 16:  ES64L-G16RevC.01  3-Jul-2019

 -----------------------------------
 #P HF/aug-cc-pVDZ scf(maxcycle=200)
 -----------------------------------

 --------------
 Gaussian input
 --------------
 Symbolic Z-matrix:
 Charge =  0 Multiplicity = 1

                         Standard orientation:
 ---------------------------------------------------------------------
 Center     Atomic      Atomic             Coordinates (Angstroms)
 Number     Number       Type             X           Y           Z
 ---------------------------------------------------------------------
      1          8           0        0.000000    0.000000    0.100999
      2          1           0       -0.000000    0.815268   -0.403996
      3          1           0       -0.000000   -0.815268   -0.403996
 ---------------------------------------------------------------------

 SCF Done:  E(RHF) =  -76.0383535468     A.U. after   10 cycles

 The electronic state is 1-A1.
 Alpha  occ. eigenvalues --  -20.57167  -1.34758  -0.73977  -0.56217  -0.50566
 Alpha virt. eigenvalues --    0.03625   0.05687   0.17545   0.19544   0.21971
 Alpha virt. eigenvalues --    0.22755   0.29861   0.31416   0.37916   0.42827
 Alpha virt. eigenvalues --    0.45225   0.52635   0.65083   0.65479   0.84529

 Mulliken charges:
               1
     1  O   -0.335570
     2  H    0.167785
     3  H    0.167785
 Sum of Mulliken charges =  -0.00000

 Dipole moment (field-independent basis, Debye):
    X=             -0.0000    Y=              0.0000    Z=             -1.7922  Tot=              1.7922
 Quadrupole moment (field-independent basis, Debye-Ang):
   XX=             -7.6196   YY=             -3.7566   ZZ=             -6.6258
   XY=              0.0000   XZ=              0.0000   YZ=             -0.0000

 Normal termination of Gaussian 16 at Mon Feb 20 10:28:16 2023.
