 Gaussian 16, Revision C.01,
 Gaussian 16:  ES64L-G16RevC.01  3-Jul-2019

 ---------------------------------
 #P B3LYP/6-31g* scf(maxcycle=200)
 ---------------------------------

 --------------
 Gaussian input
 --------------
 Symbolic Z-matrix:
 Charge =  0 Multiplicity = 1

                         Standard orientation:
 ---------------------------------------------------------------------
 Center     Atomic      Atomic             Coordinates (Angstroms)
 Number     Number       Type             X           Y           Z
 ---------------------------------------------------------------------
      1          8           0        0.000000    0.098513    0.000000
      2          1           0        0.818586   -0.296706    0.000000
      3          1           0       -0.818586   -0.491400    0.000000
 ---------------------------------------------------------------------

 SCF Done:  E(RB3LYP) =  -76.3985571012     A.U. after    9 cycles

 The electronic state is 1-A'.
 Alpha  occ. eigenvalues --  -19.12759  -0.99174  -0.54317  -0.34307  -0.28676
 Alpha virt. eigenvalues --    0.06144   0.15696   0.78039   0.87295   0.89463
 Alpha virt. eigenvalues --    0.89533   1.08654   1.15942   1.73282   1.77057
 Alpha virt. eigenvalues --    1.79595   2.31160   2.58932   3.58231

 Mulliken charges:
               1
     1  O   -0.801547
     2  H    0.404928
     3  H    0.396619
 Sum of Mulliken charges =  -0.00000

 Dipole moment (field-independent basis, Debye):
    X=              0.0790    Y=             -1.8440    Z=              0.0000  Tot=              1.8457
 Quadrupole moment (field-independent basis, Debye-Ang):
   XX=             -3.6897   YY=             -6.2996   ZZ=             -7.1797
   XY=              0.3496   XZ=              0.0000   YZ=              0.0000

 Normal termination of Gaussian 16 at Wed Feb  8 14:50:39 2023.
