 Gaussian 16, Revision C.01,
 Gaussian 16:  ES64L-G16RevC.01  3-Jul-2019

 ------------------------------------
 #P wB97XD/6-311g** scf(maxcycle=200)
 ------------------------------------

 --------------
 Gaussian input
 --------------
 Symbolic Z-matrix:
 Charge =  0 Multiplicity = 1

                         Standard orientation:
 ---------------------------------------------------------------------
 Center     Atomic      Atomic             Coordinates (Angstroms)
 Number     Number       Type             X           Y           Z
 ---------------------------------------------------------------------
      1          8           0        0.000000    0.095642    0.000000
      2          1           0        0.826707   -0.282296    0.000000
      3          1           0       -0.826707   -0.482837    0.000000
 ---------------------------------------------------------------------

 SCF Done:  E(RwB97XD) =  -76.4124165288     A.U. after   12 cycles

 The electronic state is 1-A'.
 Alpha  occ. eigenvalues --  -19.21626  -1.09244  -0.63436  -0.43189  -0.38148
 Alpha virt. eigenvalues --    0.11871   0.19345   0.44697   0.51550   0.85093
 Alpha virt. eigenvalues --    0.85736   0.94448   1.15161   1.31283   1.53997
 Alpha virt. eigenvalues --    1.62217   1.64231   2.05418   2.13059   2.48863

 Mulliken charges:
               1
     1  O   -0.545133
     2  H    0.271393
     3  H    0.273740
 Sum of Mulliken charges =  -0.00000

 Dipole moment (field-independent basis, Debye):
    X=              0.0684    Y=             -1.8391    Z=              0.0000  Tot=              1.8404
 Quadrupole moment (field-independent basis, Debye-Ang):
   XX=             -3.5695   YY=             -6.3832   ZZ=             -7.1859
   XY=              0.3847   XZ=              0.0000   YZ=              0.0000

 Normal termination of Gaussian 16 at Wed Feb  8 14:40:59 2023.
