 Gaussian 16, Revision C.01,
 Gaussian 16:  ES64L-G16RevC.01  3-Jul-2019

 ----------------------------------------
 #P PBE1PBE/aug-cc-pVDZ scf(maxcycle=200)
 ----------------------------------------

 --------------
 Gaussian input
 --------------
 Symbolic Z-matrix:
 Charge =  0 Multiplicity = 1

                         Standard orientation:
 ---------------------------------------------------------------------
 Center     Atomic      Atomic             Coordinates (Angstroms)
 Number     Number       Type             X           Y           Z
 ---------------------------------------------------------------------
      1          8           0        0.000000    0.130462    0.000000
      2          1           0        0.700906   -0.595356   -0.000000
      3          1           0       -0.700906   -0.448340    0.000000
 ---------------------------------------------------------------------

 SCF Done:  E(RPBE1PBE) =  -76.3521976937     A.U. after    8 cycles

 The electronic state is 1-A'.
 Alpha  occ. eigenvalues --  -19.23367  -1.05793  -0.53224  -0.43029  -0.33529
 Alpha virt. eigenvalues --   -0.01414   0.03363   0.10925   0.13250   0.14316
 Alpha virt. eigenvalues --    0.16898   0.18702   0.25407   0.28829   0.29582
 Alpha virt. eigenvalues --    0.32216   0.46342   0.50396   0.54989   0.62264

 Mulliken charges:
               1
     1  O   -0.210405
     2  H    0.152104
     3  H    0.058300
 Sum of Mulliken charges =   0.00000

 Dipole moment (field-independent basis, Debye):
    X=             -0.0575    Y=             -2.0079    Z=             -0.0000  Tot=              2.0088
 Quadrupole moment (field-independent basis, Debye-Ang):
   XX=             -4.9038   YY=             -6.1106   ZZ=             -7.7248
   XY=             -0.2086   XZ=             -0.0000   YZ=              0.0000

 Normal termination of Gaussian 16 at Wed Mar 29 21:53:03 2023.
