 Gaussian 16, Revision C.01,
 Gaussian 16:  ES64L-G16RevC.01  3-Jul-2019

 ------------------------------
 #P HF/6-31g* scf(maxcycle=200)
 ------------------------------

 --------------
 Gaussian input
 --------------
 Symbolic Z-matrix:
 Charge =  0 Multiplicity = 1

                         Standard orientation:
 ---------------------------------------------------------------------
 Center     Atomic      Atomic             Coordinates (Angstroms)
 Number     Number       Type             X           Y           Z
 ---------------------------------------------------------------------
      1          8           0        0.000000    0.098513   -0.000000
      2          1           0        0.818586   -0.491400    0.000000
      3          1           0       -0.818586   -0.296706   -0.000000
 ---------------------------------------------------------------------

 SCF Done:  E(RHF) =  -76.0004942881     A.U. after   10 cycles

 The electronic state is 1-A'.
 Alpha  occ. eigenvalues --  -20.55143  -1.33185  -0.72915  -0.54187  -0.49179
 Alpha virt. eigenvalues --    0.20786   0.30547   1.03908   1.12337   1.16831
 Alpha virt. eigenvalues --    1.17220   1.38714   1.40841   2.02338   2.06023
 Alpha virt. eigenvalues --    2.08452   2.64377   2.93544   3.99481

 Mulliken charges:
               1
     1  O   -0.893409
     2  H    0.445719
     3  H    0.447690
 Sum of Mulliken charges =   0.00000

 Dipole moment (field-independent basis, Debye):
    X=             -0.0613    Y=             -1.9664    Z=              0.0000  Tot=              1.9674
 Quadrupole moment (field-independent basis, Debye-Ang):
   XX=             -3.5274   YY=             -6.2948   ZZ=             -7.2300
   XY=             -0.3788   XZ=              0.0000   YZ=             -0.0000

 Normal termination of Gaussian 16 at Wed Feb  8 15:07:01 2023.
