 Gaussian 16, Revision C.01,
 Gaussian 16:  ES64L-G16RevC.01  3-Jul-2019

 ---------------------------------
 #P B3LYP/6-31g* scf(maxcycle=200)
 ---------------------------------

 --------------
 Gaussian input
 --------------
 Symbolic Z-matrix:
 Charge =  0 Multiplicity = 1

                         Standard orientation:
 ---------------------------------------------------------------------
 Center     Atomic      Atomic             Coordinates (Angstroms)
 Number     Number       Type             X           Y           Z
 ---------------------------------------------------------------------
      1          8           0        0.000000    0.112321   -0.000000
      2          1           0        0.807194   -0.493087    0.000000
      3          1           0       -0.807194   -0.405481    0.000000
 ---------------------------------------------------------------------

 SCF Done:  E(RB3LYP) =  -76.4060849993     A.U. after    9 cycles

 The electronic state is 1-A'.
 Alpha  occ. eigenvalues --  -19.13682  -0.98627  -0.52208  -0.35729  -0.28771
 Alpha virt. eigenvalues --    0.05743   0.14524   0.78307   0.83096   0.89269
 Alpha virt. eigenvalues --    0.89333   1.07109   1.16802   1.74478   1.75265
 Alpha virt. eigenvalues --    1.79018   2.26819   2.55623   3.55575

 Mulliken charges:
               1
     1  O   -0.782535
     2  H    0.387269
     3  H    0.395266
 Sum of Mulliken charges =   0.00000

 Dipole moment (field-independent basis, Debye):
    X=             -0.0459    Y=             -1.9911    Z=              0.0000  Tot=              1.9916
 Quadrupole moment (field-independent basis, Debye-Ang):
   XX=             -3.9605   YY=             -6.1608   ZZ=             -7.2316
   XY=             -0.1413   XZ=              0.0000   YZ=             -0.0000

 Normal termination of Gaussian 16 at Wed Feb  8 14:52:13 2023.
