 Gaussian 16, Revision C.01,
 Gaussian 16:  ES64L-G16RevC.01  3-Jul-2019

 -----------------------------------
 #P HF/aug-cc-pVDZ scf(maxcycle=200)
 -----------------------------------

 --------------
 Gaussian input
 --------------
 Symbolic Z-matrix:
 Charge =  0 Multiplicity = 1

                         Standard orientation:
 ---------------------------------------------------------------------
 Center     Atomic      Atomic             Coordinates (Angstroms)
 Number     Number       Type             X           Y           Z
 ---------------------------------------------------------------------
      1          8           0        0.000000   -0.000000    0.117973
      2          1           0       -0.000000    0.818621   -0.471892
      3          1           0       -0.000000   -0.818621   -0.471892
 ---------------------------------------------------------------------

 SCF Done:  E(RHF) =  -76.0331866375     A.U. after   10 cycles

 The electronic state is 1-A1.
 Alpha  occ. eigenvalues --  -20.58363  -1.32898  -0.69863  -0.56817  -0.50418
 Alpha virt. eigenvalues --    0.03474   0.05727   0.17550   0.19880   0.21695
 Alpha virt. eigenvalues --    0.23156   0.27881   0.31924   0.37960   0.40439
 Alpha virt. eigenvalues --    0.43215   0.52734   0.63457   0.65205   0.80173

 Mulliken charges:
               1
     1  O   -0.418209
     2  H    0.209105
     3  H    0.209105
 Sum of Mulliken charges =   0.00000

 Dipole moment (field-independent basis, Debye):
    X=             -0.0000    Y=              0.0000    Z=             -1.9705  Tot=              1.9705
 Quadrupole moment (field-independent basis, Debye-Ang):
   XX=             -7.7188   YY=             -3.9625   ZZ=             -6.4179
   XY=              0.0000   XZ=              0.0000   YZ=             -0.0000

 Normal termination of Gaussian 16 at Mon Feb 20 10:17:31 2023.
