 Gaussian 16, Revision C.01,
 Gaussian 16:  ES64L-G16RevC.01  3-Jul-2019

 ----------------------------------------
 #P CCSD(T)/aug-cc-pVTZ scf(maxcycle=200)
 ----------------------------------------

 --------------
 Gaussian input
 --------------
 Symbolic Z-matrix:
 Charge =  0 Multiplicity = 1

                         Standard orientation:
 ---------------------------------------------------------------------
 Center     Atomic      Atomic             Coordinates (Angstroms)
 Number     Number       Type             X           Y           Z
 ---------------------------------------------------------------------
      1          8           0        0.000000    0.111904   -0.000000
      2          1           0        0.747112   -0.489348    0.000000
      3          1           0       -0.747112   -0.405884   -0.000000
 ---------------------------------------------------------------------

 SCF Done:  E(RHF) =  -76.0596174280     A.U. after   10 cycles
 E2 =    -0.2663779851D+00 EUMP2 =    -0.76325995413120D+02
 CCSD(T)
 CCSD(T)= -0.76339326972D+02

 The electronic state is 1-A'.
 Alpha  occ. eigenvalues --  -20.56203  -1.36519  -0.73488  -0.58538  -0.51188
 Alpha virt. eigenvalues --    0.02982   0.04766   0.13621   0.15693   0.17522
 Alpha virt. eigenvalues --    0.18251   0.23016   0.24597   0.26482   0.30393
 Alpha virt. eigenvalues --    0.31265   0.36639   0.44182   0.47179   0.60268

 Mulliken charges:
               1
     1  O   -0.395535
     2  H    0.224028
     3  H    0.171507
 Sum of Mulliken charges =   0.00000

 Dipole moment (field-independent basis, Debye):
    X=             -0.0212    Y=             -1.9321    Z=             -0.0000  Tot=              1.9322
 Quadrupole moment (field-independent basis, Debye-Ang):
   XX=             -4.2217   YY=             -6.2774   ZZ=             -7.5061
   XY=             -0.1419   XZ=              0.0000   YZ=             -0.0000

 .3313937\CCSD=-76.3309428\CCSD(T)=-76.339327\RMSD=2.794e-09\PG=CS [SG(
 Normal termination of Gaussian 16 at Wed Feb  8 13:51:39 2023.
