 Gaussian 16, Revision C.01,
 Gaussian 16:  ES64L-G16RevC.01  3-Jul-2019

 -----------------------------------
 #P HF/aug-cc-pVDZ scf(maxcycle=200)
 -----------------------------------

 --------------
 Gaussian input
 --------------
 Symbolic Z-matrix:
 Charge =  0 Multiplicity = 1

                         Standard orientation:
 ---------------------------------------------------------------------
 Center     Atomic      Atomic             Coordinates (Angstroms)
 Number     Number       Type             X           Y           Z
 ---------------------------------------------------------------------
      1          8           0        0.000000    0.117051    0.000000
      2          1           0        0.727232   -0.508101    0.000000
      3          1           0       -0.727232   -0.428307   -0.000000
 ---------------------------------------------------------------------

 SCF Done:  E(RHF) =  -76.0397299140     A.U. after   10 cycles

 The electronic state is 1-A'.
 Alpha  occ. eigenvalues --  -20.57399  -1.37130  -0.72812  -0.59402  -0.51206
 Alpha virt. eigenvalues --    0.03560   0.05822   0.17304   0.19572   0.22408
 Alpha virt. eigenvalues --    0.23132   0.29579   0.33847   0.38842   0.40385
 Alpha virt. eigenvalues --    0.43471   0.54473   0.65052   0.66118   0.81911

 Mulliken charges:
               1
     1  O   -0.241144
     2  H    0.148394
     3  H    0.092751
 Sum of Mulliken charges =  -0.00000

 Dipole moment (field-independent basis, Debye):
    X=             -0.0248    Y=             -2.0130    Z=              0.0000  Tot=              2.0131
 Quadrupole moment (field-independent basis, Debye-Ang):
   XX=             -4.4236   YY=             -6.1818   ZZ=             -7.5284
   XY=             -0.1300   XZ=              0.0000   YZ=             -0.0000

 Normal termination of Gaussian 16 at Mon Feb 20 10:15:37 2023.
