 Gaussian 16, Revision C.01,
 Gaussian 16:  ES64L-G16RevC.01  3-Jul-2019

 ----------------------------------------
 #P CCSD(T)/aug-cc-pVDZ scf(maxcycle=200)
 ----------------------------------------

 --------------
 Gaussian input
 --------------
 Symbolic Z-matrix:
 Charge =  0 Multiplicity = 1

                         Standard orientation:
 ---------------------------------------------------------------------
 Center     Atomic      Atomic             Coordinates (Angstroms)
 Number     Number       Type             X           Y           Z
 ---------------------------------------------------------------------
      1          8           0        0.000000    0.111904    0.000000
      2          1           0        0.747112   -0.405884    0.000000
      3          1           0       -0.747112   -0.489348    0.000000
 ---------------------------------------------------------------------

 SCF Done:  E(RHF) =  -76.0401205261     A.U. after   10 cycles
 E2 =    -0.2172022347D+00 EUMP2 =    -0.76257322760798D+02
 CCSD(T)
 CCSD(T)= -0.76270268101D+02

 The electronic state is 1-A'.
 Alpha  occ. eigenvalues --  -20.57227  -1.36823  -0.73635  -0.58604  -0.51097
 Alpha virt. eigenvalues --    0.03594   0.05787   0.17353   0.19522   0.22365
 Alpha virt. eigenvalues --    0.23013   0.29776   0.33254   0.38625   0.41155
 Alpha virt. eigenvalues --    0.44060   0.54081   0.65120   0.66113   0.82913

 Mulliken charges:
               1
     1  O   -0.248429
     2  H    0.095554
     3  H    0.152875
 Sum of Mulliken charges =  -0.00000

 Dipole moment (field-independent basis, Debye):
    X=              0.0225    Y=             -1.9491    Z=              0.0000  Tot=              1.9492
 Quadrupole moment (field-independent basis, Debye-Ang):
   XX=             -4.2573   YY=             -6.2983   ZZ=             -7.5359
   XY=              0.1441   XZ=              0.0000   YZ=              0.0000

 .2654286\CCSD=-76.2652365\CCSD(T)=-76.2702681\RMSD=5.868e-09\PG=CS [SG
 Normal termination of Gaussian 16 at Wed Feb  8 14:47:53 2023.
