 Gaussian 16, Revision C.01,
 Gaussian 16:  ES64L-G16RevC.01  3-Jul-2019

 ------------------------------
 #P HF/6-31g* scf(maxcycle=200)
 ------------------------------

 --------------
 Gaussian input
 --------------
 Symbolic Z-matrix:
 Charge =  0 Multiplicity = 1

                         Standard orientation:
 ---------------------------------------------------------------------
 Center     Atomic      Atomic             Coordinates (Angstroms)
 Number     Number       Type             X           Y           Z
 ---------------------------------------------------------------------
      1          8           0        0.000000    0.131616   -0.000000
      2          1           0        0.662310   -0.561945   -0.000000
      3          1           0       -0.662310   -0.490981    0.000000
 ---------------------------------------------------------------------

 SCF Done:  E(RHF) =  -76.0012859376     A.U. after   10 cycles

 The electronic state is 1-A'.
 Alpha  occ. eigenvalues --  -20.56253  -1.36884  -0.68987  -0.60481  -0.50484
 Alpha virt. eigenvalues --    0.20992   0.30996   0.98059   1.12851   1.16421
 Alpha virt. eigenvalues --    1.24670   1.38246   1.48832   1.98188   2.03944
 Alpha virt. eigenvalues --    2.04758   2.68683   2.93432   3.95238

 Mulliken charges:
               1
     1  O   -0.842850
     2  H    0.418550
     3  H    0.424301
 Sum of Mulliken charges =  -0.00000

 Dipole moment (field-independent basis, Debye):
    X=             -0.0474    Y=             -2.4330    Z=              0.0000  Tot=              2.4335
 Quadrupole moment (field-independent basis, Debye-Ang):
   XX=             -4.8096   YY=             -5.5858   ZZ=             -7.1816
   XY=             -0.0840   XZ=              0.0000   YZ=              0.0000

 Normal termination of Gaussian 16 at Wed Feb  8 15:05:40 2023.
