 Gaussian 16, Revision C.01,
 Gaussian 16:  ES64L-G16RevC.01  3-Jul-2019

 ----------------------------------------
 #P PBE1PBE/aug-cc-pVDZ scf(maxcycle=200)
 ----------------------------------------

 --------------
 Gaussian input
 --------------
 Symbolic Z-matrix:
 Charge =  0 Multiplicity = 1

                         Standard orientation:
 ---------------------------------------------------------------------
 Center     Atomic      Atomic             Coordinates (Angstroms)
 Number     Number       Type             X           Y           Z
 ---------------------------------------------------------------------
      1          8           0        0.000000    0.109702    0.000000
      2          1           0        0.783374   -0.351390    0.000000
      3          1           0       -0.783374   -0.526227    0.000000
 ---------------------------------------------------------------------

 SCF Done:  E(RPBE1PBE) =  -76.3539854794     A.U. after    9 cycles

 The electronic state is 1-A'.
 Alpha  occ. eigenvalues --  -19.22761  -1.04619  -0.56227  -0.40003  -0.33203
 Alpha virt. eigenvalues --   -0.01213   0.03201   0.11211   0.13116   0.13841
 Alpha virt. eigenvalues --    0.16600   0.19553   0.23198   0.28738   0.31695
 Alpha virt. eigenvalues --    0.34398   0.44717   0.50767   0.54689   0.65486

 Mulliken charges:
               1
     1  O   -0.234075
     2  H    0.062552
     3  H    0.171523
 Sum of Mulliken charges =  -0.00000

 Dipole moment (field-independent basis, Debye):
    X=              0.0408    Y=             -1.7795    Z=              0.0000  Tot=              1.7799
 Quadrupole moment (field-independent basis, Debye-Ang):
   XX=             -4.2485   YY=             -6.5705   ZZ=             -7.7583
   XY=              0.3131   XZ=              0.0000   YZ=              0.0000

 Normal termination of Gaussian 16 at Mon Mar 20 17:33:48 2023.
