 Gaussian 16, Revision C.01,
 Gaussian 16:  ES64L-G16RevC.01  3-Jul-2019

 ------------------------------
 #P HF/6-31g* scf(maxcycle=200)
 ------------------------------

 --------------
 Gaussian input
 --------------
 Symbolic Z-matrix:
 Charge =  0 Multiplicity = 1

                         Standard orientation:
 ---------------------------------------------------------------------
 Center     Atomic      Atomic             Coordinates (Angstroms)
 Number     Number       Type             X           Y           Z
 ---------------------------------------------------------------------
      1          8           0       -0.000000    0.000000    0.142133
      2          1           0        0.000000    0.716267   -0.568531
      3          1           0       -0.000000   -0.716267   -0.568531
 ---------------------------------------------------------------------

 SCF Done:  E(RHF) =  -75.9984015550     A.U. after   10 cycles

 The electronic state is 1-A1.
 Alpha  occ. eigenvalues --  -20.57812  -1.32855  -0.65377  -0.59024  -0.50055
 Alpha virt. eigenvalues --    0.19606   0.28592   0.95463   1.12055   1.15060
 Alpha virt. eigenvalues --    1.16366   1.35341   1.49157   2.00417   2.05548
 Alpha virt. eigenvalues --    2.06053   2.59090   2.80431   3.91656

 Mulliken charges:
               1
     1  O   -0.832050
     2  H    0.416025
     3  H    0.416025
 Sum of Mulliken charges =   0.00000

 Dipole moment (field-independent basis, Debye):
    X=             -0.0000    Y=              0.0000    Z=             -2.4970  Tot=              2.4970
 Quadrupole moment (field-independent basis, Debye-Ang):
   XX=             -7.3357   YY=             -4.7446   ZZ=             -5.5763
   XY=              0.0000   XZ=              0.0000   YZ=             -0.0000

 Normal termination of Gaussian 16 at Wed Feb  8 15:07:26 2023.
