 Gaussian 16, Revision C.01,
 Gaussian 16:  ES64L-G16RevC.01  3-Jul-2019

 ------------------------------
 #P HF/6-31g* scf(maxcycle=200)
 ------------------------------

 --------------
 Gaussian input
 --------------
 Symbolic Z-matrix:
 Charge =  0 Multiplicity = 1

                         Standard orientation:
 ---------------------------------------------------------------------
 Center     Atomic      Atomic             Coordinates (Angstroms)
 Number     Number       Type             X           Y           Z
 ---------------------------------------------------------------------
      1          8           0        0.000000    0.112420    0.000000
      2          1           0        0.773917   -0.534986   -0.000000
      3          1           0       -0.773917   -0.364376    0.000000
 ---------------------------------------------------------------------

 SCF Done:  E(RHF) =  -76.0049801024     A.U. after   10 cycles

 The electronic state is 1-A'.
 Alpha  occ. eigenvalues --  -20.55805  -1.34009  -0.71367  -0.56191  -0.49641
 Alpha virt. eigenvalues --    0.20843   0.30473   1.02577   1.12805   1.16893
 Alpha virt. eigenvalues --    1.17228   1.38886   1.42269   2.03031   2.03192
 Alpha virt. eigenvalues --    2.07318   2.60844   2.96634   3.97857

 Mulliken charges:
               1
     1  O   -0.870572
     2  H    0.431709
     3  H    0.438863
 Sum of Mulliken charges =  -0.00000

 Dipole moment (field-independent basis, Debye):
    X=             -0.0760    Y=             -2.1552    Z=             -0.0000  Tot=              2.1566
 Quadrupole moment (field-independent basis, Debye-Ang):
   XX=             -3.9704   YY=             -6.0500   ZZ=             -7.2282
   XY=             -0.2879   XZ=             -0.0000   YZ=              0.0000

 Normal termination of Gaussian 16 at Wed Feb  8 15:06:51 2023.
