 Gaussian 16, Revision C.01,
 Gaussian 16:  ES64L-G16RevC.01  3-Jul-2019

 ----------------------------------------
 #P PBE1PBE/aug-cc-pVDZ scf(maxcycle=200)
 ----------------------------------------

 --------------
 Gaussian input
 --------------
 Symbolic Z-matrix:
 Charge =  0 Multiplicity = 1

                         Standard orientation:
 ---------------------------------------------------------------------
 Center     Atomic      Atomic             Coordinates (Angstroms)
 Number     Number       Type             X           Y           Z
 ---------------------------------------------------------------------
      1          8           0        0.000000    0.000000    0.100999
      2          1           0       -0.000000    0.815268   -0.403996
      3          1           0       -0.000000   -0.815268   -0.403996
 ---------------------------------------------------------------------

 SCF Done:  E(RPBE1PBE) =  -76.3567832340     A.U. after    8 cycles

 The electronic state is 1-A1.
 Alpha  occ. eigenvalues --  -19.22569  -1.04028  -0.57214  -0.38928  -0.33072
 Alpha virt. eigenvalues --   -0.01110   0.03152   0.11382   0.13076   0.13872
 Alpha virt. eigenvalues --    0.16292   0.20050   0.22288   0.28482   0.32846
 Alpha virt. eigenvalues --    0.35238   0.43984   0.51987   0.53657   0.66790

 Mulliken charges:
               1
     1  O   -0.254396
     2  H    0.127198
     3  H    0.127198
 Sum of Mulliken charges =  -0.00000

 Dipole moment (field-independent basis, Debye):
    X=             -0.0000    Y=              0.0000    Z=             -1.6771  Tot=              1.6771
 Quadrupole moment (field-independent basis, Debye-Ang):
   XX=             -7.7760   YY=             -3.9782   ZZ=             -6.7851
   XY=              0.0000   XZ=              0.0000   YZ=              0.0000

 Normal termination of Gaussian 16 at Mon Mar 20 17:34:28 2023.
