 Gaussian 16, Revision C.01,
 Gaussian 16:  ES64L-G16RevC.01  3-Jul-2019

 ------------------------------------
 #P wB97XD/6-311g** scf(maxcycle=200)
 ------------------------------------

 --------------
 Gaussian input
 --------------
 Symbolic Z-matrix:
 Charge =  0 Multiplicity = 1

                         Standard orientation:
 ---------------------------------------------------------------------
 Center     Atomic      Atomic             Coordinates (Angstroms)
 Number     Number       Type             X           Y           Z
 ---------------------------------------------------------------------
      1          8           0       -0.000000    0.000000    0.132472
      2          1           0        0.000000    0.622542   -0.529889
      3          1           0       -0.000000   -0.622542   -0.529889
 ---------------------------------------------------------------------

 SCF Done:  E(RwB97XD) =  -76.4075073142     A.U. after   12 cycles

 The electronic state is 1-A1.
 Alpha  occ. eigenvalues --  -19.22526  -1.14475  -0.59115  -0.50434  -0.39552
 Alpha virt. eigenvalues --    0.12180   0.20370   0.46803   0.56504   0.85176
 Alpha virt. eigenvalues --    0.85384   0.96871   1.13663   1.17779   1.43816
 Alpha virt. eigenvalues --    1.43988   1.92005   2.01490   2.23876   2.45936

 Mulliken charges:
               1
     1  O   -0.425950
     2  H    0.212975
     3  H    0.212975
 Sum of Mulliken charges =  -0.00000

 Dipole moment (field-independent basis, Debye):
    X=             -0.0000    Y=             -0.0000    Z=             -2.2700  Tot=              2.2700
 Quadrupole moment (field-independent basis, Debye-Ang):
   XX=             -7.0483   YY=             -5.0249   ZZ=             -5.5545
   XY=              0.0000   XZ=              0.0000   YZ=             -0.0000

 Normal termination of Gaussian 16 at Wed Feb  8 14:40:08 2023.
