 Gaussian 16, Revision C.01,
 Gaussian 16:  ES64L-G16RevC.01  3-Jul-2019

 ---------------------------------
 #P B3LYP/6-31g* scf(maxcycle=200)
 ---------------------------------

 --------------
 Gaussian input
 --------------
 Symbolic Z-matrix:
 Charge =  0 Multiplicity = 1

                         Standard orientation:
 ---------------------------------------------------------------------
 Center     Atomic      Atomic             Coordinates (Angstroms)
 Number     Number       Type             X           Y           Z
 ---------------------------------------------------------------------
      1          8           0       -0.000000    0.120370    0.000000
      2          1           0        0.744049   -0.561151    0.000000
      3          1           0       -0.744049   -0.401810   -0.000000
 ---------------------------------------------------------------------

 SCF Done:  E(RB3LYP) =  -76.4036670745     A.U. after    9 cycles

 The electronic state is 1-A'.
 Alpha  occ. eigenvalues --  -19.13675  -1.00550  -0.51860  -0.37533  -0.29254
 Alpha virt. eigenvalues --    0.06156   0.15320   0.76089   0.88329   0.89048
 Alpha virt. eigenvalues --    0.90309   1.07223   1.20080   1.72289   1.74417
 Alpha virt. eigenvalues --    1.77736   2.27473   2.61263   3.55647

 Mulliken charges:
               1
     1  O   -0.771733
     2  H    0.377926
     3  H    0.393807
 Sum of Mulliken charges =  -0.00000

 Dipole moment (field-independent basis, Debye):
    X=             -0.0969    Y=             -2.1077    Z=              0.0000  Tot=              2.1099
 Quadrupole moment (field-independent basis, Debye-Ang):
   XX=             -4.3704   YY=             -5.9293   ZZ=             -7.1830
   XY=             -0.2215   XZ=             -0.0000   YZ=             -0.0000

 Normal termination of Gaussian 16 at Wed Feb  8 14:51:52 2023.
