 Gaussian 16, Revision C.01,
 Gaussian 16:  ES64L-G16RevC.01  3-Jul-2019

 ------------------------------
 #P HF/6-31g* scf(maxcycle=200)
 ------------------------------

 --------------
 Gaussian input
 --------------
 Symbolic Z-matrix:
 Charge =  0 Multiplicity = 1

                         Standard orientation:
 ---------------------------------------------------------------------
 Center     Atomic      Atomic             Coordinates (Angstroms)
 Number     Number       Type             X           Y           Z
 ---------------------------------------------------------------------
      1          8           0        0.000000    0.100788   -0.000000
      2          1           0        0.844123   -0.451967   -0.000000
      3          1           0       -0.844123   -0.354336    0.000000
 ---------------------------------------------------------------------

 SCF Done:  E(RHF) =  -76.0016937862     A.U. after   10 cycles

 The electronic state is 1-A'.
 Alpha  occ. eigenvalues --  -20.55608  -1.31778  -0.71407  -0.53787  -0.48963
 Alpha virt. eigenvalues --    0.20295   0.29916   1.03618   1.09253   1.16057
 Alpha virt. eigenvalues --    1.17259   1.38549   1.39399   2.03069   2.06535
 Alpha virt. eigenvalues --    2.08834   2.63027   2.87220   3.97924

 Mulliken charges:
               1
     1  O   -0.894271
     2  H    0.445502
     3  H    0.448768
 Sum of Mulliken charges =  -0.00000

 Dipole moment (field-independent basis, Debye):
    X=             -0.0323    Y=             -1.9849    Z=              0.0000  Tot=              1.9852
 Quadrupole moment (field-independent basis, Debye-Ang):
   XX=             -3.4182   YY=             -6.3516   ZZ=             -7.2834
   XY=             -0.1932   XZ=             -0.0000   YZ=              0.0000

 Normal termination of Gaussian 16 at Wed Feb  8 15:07:21 2023.
