 Gaussian 16, Revision C.01,
 Gaussian 16:  ES64L-G16RevC.01  3-Jul-2019

 ---------------------------------
 #P B3LYP/6-31g* scf(maxcycle=200)
 ---------------------------------

 --------------
 Gaussian input
 --------------
 Symbolic Z-matrix:
 Charge =  0 Multiplicity = 1

                         Standard orientation:
 ---------------------------------------------------------------------
 Center     Atomic      Atomic             Coordinates (Angstroms)
 Number     Number       Type             X           Y           Z
 ---------------------------------------------------------------------
      1          8           0       -0.000000   -0.000000    0.149435
      2          1           0        0.000000    0.678092   -0.597741
      3          1           0       -0.000000   -0.678092   -0.597741
 ---------------------------------------------------------------------

 SCF Done:  E(RB3LYP) =  -76.3971097552     A.U. after   10 cycles

 The electronic state is 1-A1.
 Alpha  occ. eigenvalues --  -19.15426  -0.99893  -0.46773  -0.41025  -0.29497
 Alpha virt. eigenvalues --    0.04429   0.12787   0.71142   0.84347   0.88633
 Alpha virt. eigenvalues --    0.89447   1.04176   1.25303   1.70895   1.76350
 Alpha virt. eigenvalues --    1.76833   2.30518   2.41992   3.49409

 Mulliken charges:
               1
     1  O   -0.728981
     2  H    0.364490
     3  H    0.364490
 Sum of Mulliken charges =   0.00000

 Dipole moment (field-independent basis, Debye):
    X=             -0.0000    Y=             -0.0000    Z=             -2.3661  Tot=              2.3661
 Quadrupole moment (field-independent basis, Debye-Ang):
   XX=             -7.2881   YY=             -5.1537   ZZ=             -5.4791
   XY=              0.0000   XZ=              0.0000   YZ=              0.0000

 Normal termination of Gaussian 16 at Wed Feb  8 14:52:26 2023.
