 Gaussian 16, Revision C.01,
 Gaussian 16:  ES64L-G16RevC.01  3-Jul-2019

 ---------------------------------
 #P B3LYP/6-31g* scf(maxcycle=200)
 ---------------------------------

 --------------
 Gaussian input
 --------------
 Symbolic Z-matrix:
 Charge =  0 Multiplicity = 1

                         Standard orientation:
 ---------------------------------------------------------------------
 Center     Atomic      Atomic             Coordinates (Angstroms)
 Number     Number       Type             X           Y           Z
 ---------------------------------------------------------------------
      1          8           0        0.000000    0.133701    0.000000
      2          1           0        0.721544   -0.498007    0.000000
      3          1           0       -0.721544   -0.571604    0.000000
 ---------------------------------------------------------------------

 SCF Done:  E(RB3LYP) =  -76.4054011625     A.U. after   10 cycles

 The electronic state is 1-A'.
 Alpha  occ. eigenvalues --  -19.14536  -1.00030  -0.49523  -0.39039  -0.29332
 Alpha virt. eigenvalues --    0.05510   0.14064   0.73562   0.86434   0.88862
 Alpha virt. eigenvalues --    0.90121   1.05559   1.22816   1.70929   1.75602
 Alpha virt. eigenvalues --    1.77151   2.27256   2.52566   3.52717

 Mulliken charges:
               1
     1  O   -0.753886
     2  H    0.382712
     3  H    0.371175
 Sum of Mulliken charges =  -0.00000

 Dipole moment (field-independent basis, Debye):
    X=              0.0538    Y=             -2.2319    Z=              0.0000  Tot=              2.2325
 Quadrupole moment (field-independent basis, Debye-Ang):
   XX=             -4.6956   YY=             -5.7483   ZZ=             -7.2364
   XY=              0.0869   XZ=              0.0000   YZ=              0.0000

 Normal termination of Gaussian 16 at Wed Feb  8 14:51:24 2023.
