 Gaussian 16, Revision C.01,
 Gaussian 16:  ES64L-G16RevC.01  3-Jul-2019

 ----------------------------------------
 #P CCSD(T)/aug-cc-pVTZ scf(maxcycle=200)
 ----------------------------------------

 --------------
 Gaussian input
 --------------
 Symbolic Z-matrix:
 Charge =  0 Multiplicity = 1

                         Standard orientation:
 ---------------------------------------------------------------------
 Center     Atomic      Atomic             Coordinates (Angstroms)
 Number     Number       Type             X           Y           Z
 ---------------------------------------------------------------------
      1          8           0        0.000000    0.000000    0.106281
      2          1           0       -0.000000    0.737489   -0.425124
      3          1           0       -0.000000   -0.737489   -0.425124
 ---------------------------------------------------------------------

 SCF Done:  E(RHF) =  -76.0587688044     A.U. after   10 cycles
 E2 =    -0.2643536134D+00 EUMP2 =    -0.76323122417893D+02
 CCSD(T)
 CCSD(T)= -0.76336427505D+02

 The electronic state is 1-A1.
 Alpha  occ. eigenvalues --  -20.55669  -1.37703  -0.75351  -0.58630  -0.51364
 Alpha virt. eigenvalues --    0.03024   0.04763   0.13645   0.15525   0.17573
 Alpha virt. eigenvalues --    0.18171   0.23285   0.24689   0.26444   0.30736
 Alpha virt. eigenvalues --    0.31509   0.36685   0.44868   0.47388   0.60635

 Mulliken charges:
               1
     1  O   -0.348564
     2  H    0.174282
     3  H    0.174282
 Sum of Mulliken charges =  -0.00000

 Dipole moment (field-independent basis, Debye):
    X=             -0.0000    Y=              0.0000    Z=             -1.8775  Tot=              1.8775
 Quadrupole moment (field-independent basis, Debye-Ang):
   XX=             -7.4498   YY=             -4.1952   ZZ=             -6.3217
   XY=              0.0000   XZ=              0.0000   YZ=             -0.0000

 .3287184\CCSD=-76.3282922\CCSD(T)=-76.3364275\RMSD=2.220e-09\PG=C02V [
 Normal termination of Gaussian 16 at Wed Feb  8 13:48:17 2023.
