 Gaussian 16, Revision C.01,
 Gaussian 16:  ES64L-G16RevC.01  3-Jul-2019

 ----------------------------------------
 #P CCSD(T)/aug-cc-pVTZ scf(maxcycle=200)
 ----------------------------------------

 --------------
 Gaussian input
 --------------
 Symbolic Z-matrix:
 Charge =  0 Multiplicity = 1

                         Standard orientation:
 ---------------------------------------------------------------------
 Center     Atomic      Atomic             Coordinates (Angstroms)
 Number     Number       Type             X           Y           Z
 ---------------------------------------------------------------------
      1          8           0        0.000000    0.000000    0.122709
      2          1           0       -0.000000    0.737052   -0.490835
      3          1           0       -0.000000   -0.737052   -0.490835
 ---------------------------------------------------------------------

 SCF Done:  E(RHF) =  -76.0597914755     A.U. after   10 cycles
 E2 =    -0.2688409808D+00 EUMP2 =    -0.76328632456342D+02
 CCSD(T)
 CCSD(T)= -0.76341942179D+02

 The electronic state is 1-A1.
 Alpha  occ. eigenvalues --  -20.56923  -1.35568  -0.70878  -0.59262  -0.51139
 Alpha virt. eigenvalues --    0.02915   0.04793   0.13533   0.15926   0.17597
 Alpha virt. eigenvalues --    0.18399   0.22616   0.24554   0.26679   0.29640
 Alpha virt. eigenvalues --    0.30805   0.36659   0.43754   0.46632   0.59703

 Mulliken charges:
               1
     1  O   -0.441830
     2  H    0.220915
     3  H    0.220915
 Sum of Mulliken charges =   0.00000

 Dipole moment (field-independent basis, Debye):
    X=             -0.0000    Y=             -0.0000    Z=             -2.0497  Tot=              2.0497
 Quadrupole moment (field-independent basis, Debye-Ang):
   XX=             -7.5558   YY=             -4.4211   ZZ=             -6.1204
   XY=              0.0000   XZ=              0.0000   YZ=              0.0000

 333753\CCSD=-76.3332692\CCSD(T)=-76.3419422\RMSD=3.919e-09\PG=C02V [C2
 Normal termination of Gaussian 16 at Wed Feb  8 13:52:37 2023.
