 Gaussian 16, Revision C.01,
 Gaussian 16:  ES64L-G16RevC.01  3-Jul-2019

 ----------------------------------------
 #P CCSD(T)/aug-cc-pVTZ scf(maxcycle=200)
 ----------------------------------------

 --------------
 Gaussian input
 --------------
 Symbolic Z-matrix:
 Charge =  0 Multiplicity = 1

                         Standard orientation:
 ---------------------------------------------------------------------
 Center     Atomic      Atomic             Coordinates (Angstroms)
 Number     Number       Type             X           Y           Z
 ---------------------------------------------------------------------
      1          8           0        0.000000    0.133907    0.000000
      2          1           0        0.650757   -0.500755    0.000000
      3          1           0       -0.650757   -0.570505    0.000000
 ---------------------------------------------------------------------

 SCF Done:  E(RHF) =  -76.0501726289     A.U. after   10 cycles
 E2 =    -0.2682916189D+00 EUMP2 =    -0.76318464247821D+02
 CCSD(T)
 CCSD(T)= -0.76331623869D+02

 The electronic state is 1-A'.
 Alpha  occ. eigenvalues --  -20.56883  -1.38036  -0.69513  -0.62163  -0.51669
 Alpha virt. eigenvalues --    0.02847   0.04878   0.13308   0.15991   0.17782
 Alpha virt. eigenvalues --    0.18695   0.22499   0.24855   0.27121   0.28663
 Alpha virt. eigenvalues --    0.30318   0.37145   0.43677   0.47212   0.59139

 Mulliken charges:
               1
     1  O   -0.410707
     2  H    0.180387
     3  H    0.230321
 Sum of Mulliken charges =  -0.00000

 Dipole moment (field-independent basis, Debye):
    X=              0.0306    Y=             -2.2049    Z=              0.0000  Tot=              2.2051
 Quadrupole moment (field-independent basis, Debye-Ang):
   XX=             -4.9821   YY=             -5.7443   ZZ=             -7.4845
   XY=              0.0878   XZ=              0.0000   YZ=              0.0000

 .3235398\CCSD=-76.3230657\CCSD(T)=-76.3316239\RMSD=2.739e-09\PG=CS [SG
 Normal termination of Gaussian 16 at Wed Feb  8 13:50:18 2023.
