 Gaussian 16, Revision C.01,
 Gaussian 16:  ES64L-G16RevC.01  3-Jul-2019

 ----------------------------------------
 #P CCSD(T)/aug-cc-pVTZ scf(maxcycle=200)
 ----------------------------------------

 --------------
 Gaussian input
 --------------
 Symbolic Z-matrix:
 Charge =  0 Multiplicity = 1

                         Standard orientation:
 ---------------------------------------------------------------------
 Center     Atomic      Atomic             Coordinates (Angstroms)
 Number     Number       Type             X           Y           Z
 ---------------------------------------------------------------------
      1          8           0        0.000000    0.125966    0.000000
      2          1           0        0.755426   -0.464807    0.000000
      3          1           0       -0.755426   -0.542923    0.000000
 ---------------------------------------------------------------------

 SCF Done:  E(RHF) =  -76.0559894331     A.U. after   10 cycles
 E2 =    -0.2708675205D+00 EUMP2 =    -0.76326856953598D+02
 CCSD(T)
 CCSD(T)= -0.76340207809D+02

 The electronic state is 1-A'.
 Alpha  occ. eigenvalues --  -20.57352  -1.34360  -0.69603  -0.58742  -0.50951
 Alpha virt. eigenvalues --    0.02879   0.04784   0.13511   0.16040   0.17485
 Alpha virt. eigenvalues --    0.18411   0.22359   0.24442   0.26668   0.29526
 Alpha virt. eigenvalues --    0.30718   0.36550   0.43106   0.46226   0.59570

 Mulliken charges:
               1
     1  O   -0.474668
     2  H    0.219131
     3  H    0.255537
 Sum of Mulliken charges =  -0.00000

 Dipole moment (field-independent basis, Debye):
    X=              0.0246    Y=             -2.0713    Z=              0.0000  Tot=              2.0715
 Quadrupole moment (field-independent basis, Debye-Ang):
   XX=             -4.3757   YY=             -6.1229   ZZ=             -7.6120
   XY=              0.1254   XZ=              0.0000   YZ=              0.0000

 3317863\CCSD=-76.3312759\CCSD(T)=-76.3402078\RMSD=4.769e-09\PG=CS [SG(
 Normal termination of Gaussian 16 at Wed Feb  8 13:54:03 2023.
