 Gaussian 16, Revision C.01,
 Gaussian 16:  ES64L-G16RevC.01  3-Jul-2019

 ------------------------------
 #P HF/6-31g* scf(maxcycle=200)
 ------------------------------

 --------------
 Gaussian input
 --------------
 Symbolic Z-matrix:
 Charge =  0 Multiplicity = 1

                         Standard orientation:
 ---------------------------------------------------------------------
 Center     Atomic      Atomic             Coordinates (Angstroms)
 Number     Number       Type             X           Y           Z
 ---------------------------------------------------------------------
      1          8           0        0.000000    0.092865    0.000000
      2          1           0        0.809229   -0.421750   -0.000000
      3          1           0       -0.809229   -0.321174    0.000000
 ---------------------------------------------------------------------

 SCF Done:  E(RHF) =  -76.0032369811     A.U. after   10 cycles

 The electronic state is 1-A'.
 Alpha  occ. eigenvalues --  -20.54596  -1.34124  -0.74721  -0.54261  -0.49286
 Alpha virt. eigenvalues --    0.21576   0.31048   1.06924   1.13214   1.16823
 Alpha virt. eigenvalues --    1.17238   1.39414   1.40964   2.01525   2.06057
 Alpha virt. eigenvalues --    2.08250   2.70605   2.94341   4.01150

 Mulliken charges:
               1
     1  O   -0.900091
     2  H    0.450959
     3  H    0.449132
 Sum of Mulliken charges =   0.00000

 Dipole moment (field-independent basis, Debye):
    X=             -0.0279    Y=             -1.9027    Z=             -0.0000  Tot=              1.9029
 Quadrupole moment (field-independent basis, Debye-Ang):
   XX=             -3.4945   YY=             -6.3568   ZZ=             -7.1790
   XY=             -0.1988   XZ=             -0.0000   YZ=              0.0000

 Normal termination of Gaussian 16 at Wed Feb  8 15:06:01 2023.
