 Gaussian 16, Revision C.01,
 Gaussian 16:  ES64L-G16RevC.01  3-Jul-2019

 ------------------------------
 #P HF/6-31g* scf(maxcycle=200)
 ------------------------------

 --------------
 Gaussian input
 --------------
 Symbolic Z-matrix:
 Charge =  0 Multiplicity = 1

                         Standard orientation:
 ---------------------------------------------------------------------
 Center     Atomic      Atomic             Coordinates (Angstroms)
 Number     Number       Type             X           Y           Z
 ---------------------------------------------------------------------
      1          8           0        0.000000    0.128584    0.000000
      2          1           0        0.744360   -0.476073    0.000000
      3          1           0       -0.744360   -0.552599    0.000000
 ---------------------------------------------------------------------

 SCF Done:  E(RHF) =  -76.0059994336     A.U. after   10 cycles

 The electronic state is 1-A'.
 Alpha  occ. eigenvalues --  -20.56897  -1.33416  -0.68172  -0.57828  -0.49878
 Alpha virt. eigenvalues --    0.20319   0.29591   0.98485   1.12825   1.16460
 Alpha virt. eigenvalues --    1.16603   1.36851   1.45863   2.01064   2.04416
 Alpha virt. eigenvalues --    2.06558   2.58791   2.89078   3.94552

 Mulliken charges:
               1
     1  O   -0.850774
     2  H    0.429541
     3  H    0.421233
 Sum of Mulliken charges =  -0.00000

 Dipole moment (field-independent basis, Debye):
    X=              0.0464    Y=             -2.3493    Z=              0.0000  Tot=              2.3498
 Quadrupole moment (field-independent basis, Debye-Ang):
   XX=             -4.3785   YY=             -5.8085   ZZ=             -7.2823
   XY=              0.1094   XZ=              0.0000   YZ=              0.0000

 Normal termination of Gaussian 16 at Wed Feb  8 15:06:31 2023.
