 Gaussian 16, Revision C.01,
 Gaussian 16:  ES64L-G16RevC.01  3-Jul-2019

 ------------------------------
 #P HF/6-31g* scf(maxcycle=200)
 ------------------------------

 --------------
 Gaussian input
 --------------
 Symbolic Z-matrix:
 Charge =  0 Multiplicity = 1

                         Standard orientation:
 ---------------------------------------------------------------------
 Center     Atomic      Atomic             Coordinates (Angstroms)
 Number     Number       Type             X           Y           Z
 ---------------------------------------------------------------------
      1          8           0        0.000000    0.109487   -0.000000
      2          1           0        0.816810   -0.482883    0.000000
      3          1           0       -0.816810   -0.393009   -0.000000
 ---------------------------------------------------------------------

 SCF Done:  E(RHF) =  -76.0051974084     A.U. after   10 cycles

 The electronic state is 1-A'.
 Alpha  occ. eigenvalues --  -20.56038  -1.32255  -0.70559  -0.54982  -0.49262
 Alpha virt. eigenvalues --    0.20406   0.29828   1.03987   1.08926   1.15601
 Alpha virt. eigenvalues --    1.17043   1.38255   1.40485   2.03446   2.04933
 Alpha virt. eigenvalues --    2.08157   2.60297   2.89917   3.97041

 Mulliken charges:
               1
     1  O   -0.879332
     2  H    0.437255
     3  H    0.442077
 Sum of Mulliken charges =  -0.00000

 Dipole moment (field-independent basis, Debye):
    X=             -0.0370    Y=             -2.1022    Z=              0.0000  Tot=              2.1025
 Quadrupole moment (field-independent basis, Debye-Ang):
   XX=             -3.7021   YY=             -6.1953   ZZ=             -7.2817
   XY=             -0.1636   XZ=              0.0000   YZ=             -0.0000

 Normal termination of Gaussian 16 at Wed Feb  8 15:07:12 2023.
