 Gaussian 16, Revision C.01,
 Gaussian 16:  ES64L-G16RevC.01  3-Jul-2019

 ----------------------------------------
 #P CCSD(T)/aug-cc-pVTZ scf(maxcycle=200)
 ----------------------------------------

 --------------
 Gaussian input
 --------------
 Symbolic Z-matrix:
 Charge =  0 Multiplicity = 1

                         Standard orientation:
 ---------------------------------------------------------------------
 Center     Atomic      Atomic             Coordinates (Angstroms)
 Number     Number       Type             X           Y           Z
 ---------------------------------------------------------------------
      1          8           0        0.000000    0.106951    0.000000
      2          1           0        0.792575   -0.338139    0.000000
      3          1           0       -0.792575   -0.517473    0.000000
 ---------------------------------------------------------------------

 SCF Done:  E(RHF) =  -76.0543250581     A.U. after   10 cycles
 E2 =    -0.2680318735D+00 EUMP2 =    -0.76322356931589D+02
 CCSD(T)
 CCSD(T)= -0.76335739000D+02

 The electronic state is 1-A'.
 Alpha  occ. eigenvalues --  -20.56327  -1.34963  -0.73195  -0.56865  -0.50798
 Alpha virt. eigenvalues --    0.02976   0.04723   0.13675   0.15707   0.17188
 Alpha virt. eigenvalues --    0.18162   0.22947   0.24403   0.26245   0.30929
 Alpha virt. eigenvalues --    0.31620   0.36468   0.43185   0.47039   0.60482

 Mulliken charges:
               1
     1  O   -0.431856
     2  H    0.170764
     3  H    0.261092
 Sum of Mulliken charges =   0.00000

 Dipole moment (field-independent basis, Debye):
    X=              0.0332    Y=             -1.8517    Z=              0.0000  Tot=              1.8520
 Quadrupole moment (field-independent basis, Debye-Ang):
   XX=             -3.9228   YY=             -6.4438   ZZ=             -7.5745
   XY=              0.3359   XZ=              0.0000   YZ=              0.0000

 .3275989\CCSD=-76.3271273\CCSD(T)=-76.335739\RMSD=4.042e-09\PG=CS [SG(
 Normal termination of Gaussian 16 at Wed Feb  8 13:50:33 2023.
