 Gaussian 16, Revision C.01,
 Gaussian 16:  ES64L-G16RevC.01  3-Jul-2019

 ----------------------------------------
 #P PBE1PBE/aug-cc-pVDZ scf(maxcycle=200)
 ----------------------------------------

 --------------
 Gaussian input
 --------------
 Symbolic Z-matrix:
 Charge =  0 Multiplicity = 1

                         Standard orientation:
 ---------------------------------------------------------------------
 Center     Atomic      Atomic             Coordinates (Angstroms)
 Number     Number       Type             X           Y           Z
 ---------------------------------------------------------------------
      1          8           0        0.000000    0.106951    0.000000
      2          1           0        0.792575   -0.338139    0.000000
      3          1           0       -0.792575   -0.517473    0.000000
 ---------------------------------------------------------------------

 SCF Done:  E(RPBE1PBE) =  -76.3533655083     A.U. after    9 cycles

 The electronic state is 1-A'.
 Alpha  occ. eigenvalues --  -19.22678  -1.04489  -0.56559  -0.39638  -0.33162
 Alpha virt. eigenvalues --   -0.01200   0.03182   0.11231   0.13098   0.13751
 Alpha virt. eigenvalues --    0.16553   0.19695   0.22965   0.28632   0.32089
 Alpha virt. eigenvalues --    0.34703   0.44494   0.50770   0.54655   0.65938

 Mulliken charges:
               1
     1  O   -0.239600
     2  H    0.064594
     3  H    0.175006
 Sum of Mulliken charges =   0.00000

 Dipole moment (field-independent basis, Debye):
    X=              0.0383    Y=             -1.7478    Z=              0.0000  Tot=              1.7482
 Quadrupole moment (field-independent basis, Debye-Ang):
   XX=             -4.1688   YY=             -6.6270   ZZ=             -7.7630
   XY=              0.3295   XZ=              0.0000   YZ=              0.0000

 Normal termination of Gaussian 16 at Mon Mar 20 17:33:48 2023.
