 Gaussian 16, Revision C.01,
 Gaussian 16:  ES64L-G16RevC.01  3-Jul-2019

 ----------------------------------------
 #P PBE1PBE/aug-cc-pVDZ scf(maxcycle=200)
 ----------------------------------------

 --------------
 Gaussian input
 --------------
 Symbolic Z-matrix:
 Charge =  0 Multiplicity = 1

                         Standard orientation:
 ---------------------------------------------------------------------
 Center     Atomic      Atomic             Coordinates (Angstroms)
 Number     Number       Type             X           Y           Z
 ---------------------------------------------------------------------
      1          8           0        0.000000    0.000000    0.114826
      2          1           0       -0.000000    0.768152   -0.459303
      3          1           0       -0.000000   -0.768152   -0.459303
 ---------------------------------------------------------------------

 SCF Done:  E(RPBE1PBE) =  -76.3598158086     A.U. after    8 cycles

 The electronic state is 1-A1.
 Alpha  occ. eigenvalues --  -19.22985  -1.04679  -0.55543  -0.40755  -0.33275
 Alpha virt. eigenvalues --   -0.01175   0.03248   0.11282   0.13163   0.14354
 Alpha virt. eigenvalues --    0.16501   0.19254   0.23536   0.29035   0.30864
 Alpha virt. eigenvalues --    0.33685   0.45115   0.51885   0.53940   0.64330

 Mulliken charges:
               1
     1  O   -0.226982
     2  H    0.113491
     3  H    0.113491
 Sum of Mulliken charges =  -0.00000

 Dipole moment (field-independent basis, Debye):
    X=             -0.0000    Y=             -0.0000    Z=             -1.8377  Tot=              1.8377
 Quadrupole moment (field-independent basis, Debye-Ang):
   XX=             -7.7523   YY=             -4.3880   ZZ=             -6.4908
   XY=              0.0000   XZ=              0.0000   YZ=              0.0000

 Normal termination of Gaussian 16 at Mon Mar 20 17:34:33 2023.
