 Gaussian 16, Revision C.01,
 Gaussian 16:  ES64L-G16RevC.01  3-Jul-2019

 ------------------------------
 #P HF/6-31g* scf(maxcycle=200)
 ------------------------------

 --------------
 Gaussian input
 --------------
 Symbolic Z-matrix:
 Charge =  0 Multiplicity = 1

                         Standard orientation:
 ---------------------------------------------------------------------
 Center     Atomic      Atomic             Coordinates (Angstroms)
 Number     Number       Type             X           Y           Z
 ---------------------------------------------------------------------
      1          8           0        0.000000    0.141071    0.000000
      2          1           0        0.685666   -0.529409    0.000000
      3          1           0       -0.685666   -0.599161    0.000000
 ---------------------------------------------------------------------

 SCF Done:  E(RHF) =  -75.9991734020     A.U. after   10 cycles

 The electronic state is 1-A'.
 Alpha  occ. eigenvalues --  -20.57387  -1.34333  -0.66157  -0.59891  -0.50255
 Alpha virt. eigenvalues --    0.19955   0.29423   0.95745   1.12450   1.16340
 Alpha virt. eigenvalues --    1.18222   1.36066   1.49623   1.99559   2.05012
 Alpha virt. eigenvalues --    2.05570   2.62952   2.84017   3.92391

 Mulliken charges:
               1
     1  O   -0.834383
     2  H    0.422538
     3  H    0.411845
 Sum of Mulliken charges =  -0.00000

 Dipole moment (field-independent basis, Debye):
    X=              0.0521    Y=             -2.5077    Z=              0.0000  Tot=              2.5082
 Quadrupole moment (field-independent basis, Debye-Ang):
   XX=             -4.8667   YY=             -5.5201   ZZ=             -7.2856
   XY=              0.0794   XZ=              0.0000   YZ=              0.0000

 Normal termination of Gaussian 16 at Wed Feb  8 15:06:21 2023.
