 Gaussian 16, Revision C.01,
 Gaussian 16:  ES64L-G16RevC.01  3-Jul-2019

 ----------------------------------------
 #P PBE1PBE/aug-cc-pVDZ scf(maxcycle=200)
 ----------------------------------------

 --------------
 Gaussian input
 --------------
 Symbolic Z-matrix:
 Charge =  0 Multiplicity = 1

                         Standard orientation:
 ---------------------------------------------------------------------
 Center     Atomic      Atomic             Coordinates (Angstroms)
 Number     Number       Type             X           Y           Z
 ---------------------------------------------------------------------
      1          8           0        0.000000    0.119572    0.000000
      2          1           0        0.716953   -0.439230    0.000000
      3          1           0       -0.716953   -0.517343    0.000000
 ---------------------------------------------------------------------

 SCF Done:  E(RPBE1PBE) =  -76.3561914131     A.U. after    8 cycles

 The electronic state is 1-A'.
 Alpha  occ. eigenvalues --  -19.22793  -1.06330  -0.55396  -0.42123  -0.33610
 Alpha virt. eigenvalues --   -0.01074   0.03414   0.11249   0.13156   0.14726
 Alpha virt. eigenvalues --    0.17075   0.19329   0.24788   0.29585   0.30178
 Alpha virt. eigenvalues --    0.33226   0.46165   0.52163   0.54990   0.63703

 Mulliken charges:
               1
     1  O   -0.161881
     2  H    0.055847
     3  H    0.106034
 Sum of Mulliken charges =   0.00000

 Dipole moment (field-independent basis, Debye):
    X=              0.0264    Y=             -1.9124    Z=              0.0000  Tot=              1.9126
 Quadrupole moment (field-independent basis, Debye-Ang):
   XX=             -4.6852   YY=             -6.2920   ZZ=             -7.6765
   XY=              0.1203   XZ=              0.0000   YZ=              0.0000

 Normal termination of Gaussian 16 at Mon Mar 20 17:33:28 2023.
