 Gaussian 16, Revision C.01,
 Gaussian 16:  ES64L-G16RevC.01  3-Jul-2019

 ------------------------------------
 #P wB97XD/6-311g** scf(maxcycle=200)
 ------------------------------------

 --------------
 Gaussian input
 --------------
 Symbolic Z-matrix:
 Charge =  0 Multiplicity = 1

                         Standard orientation:
 ---------------------------------------------------------------------
 Center     Atomic      Atomic             Coordinates (Angstroms)
 Number     Number       Type             X           Y           Z
 ---------------------------------------------------------------------
      1          8           0        0.000000   -0.000000    0.129106
      2          1           0       -0.000000    0.775480   -0.516426
      3          1           0       -0.000000   -0.775480   -0.516426
 ---------------------------------------------------------------------

 SCF Done:  E(RwB97XD) =  -76.4186774343     A.U. after   12 cycles

 The electronic state is 1-A1.
 Alpha  occ. eigenvalues --  -19.23622  -1.08522  -0.58481  -0.46672  -0.38386
 Alpha virt. eigenvalues --    0.10729   0.18048   0.43649   0.48944   0.85462
 Alpha virt. eigenvalues --    0.85639   0.94750   1.16498   1.29377   1.35395
 Alpha virt. eigenvalues --    1.51929   1.72866   1.93974   2.09592   2.37087

 Mulliken charges:
               1
     1  O   -0.479648
     2  H    0.239824
     3  H    0.239824
 Sum of Mulliken charges =  -0.00000

 Dipole moment (field-independent basis, Debye):
    X=             -0.0000    Y=              0.0000    Z=             -2.1739  Tot=              2.1739
 Quadrupole moment (field-independent basis, Debye-Ang):
   XX=             -7.2758   YY=             -4.3177   ZZ=             -5.9351
   XY=              0.0000   XZ=              0.0000   YZ=             -0.0000

 Normal termination of Gaussian 16 at Wed Feb  8 14:43:03 2023.
