 Gaussian 16, Revision C.01,
 Gaussian 16:  ES64L-G16RevC.01  3-Jul-2019

 ----------------------------------------
 #P CCSD(T)/aug-cc-pVTZ scf(maxcycle=200)
 ----------------------------------------

 --------------
 Gaussian input
 --------------
 Symbolic Z-matrix:
 Charge =  0 Multiplicity = 1

                         Standard orientation:
 ---------------------------------------------------------------------
 Center     Atomic      Atomic             Coordinates (Angstroms)
 Number     Number       Type             X           Y           Z
 ---------------------------------------------------------------------
      1          8           0        0.000000    0.115122    0.000000
      2          1           0        0.797327   -0.417749    0.000000
      3          1           0       -0.797327   -0.503223    0.000000
 ---------------------------------------------------------------------

 SCF Done:  E(RHF) =  -76.0561459356     A.U. after   10 cycles
 E2 =    -0.2702219070D+00 EUMP2 =    -0.76326367842584D+02
 CCSD(T)
 CCSD(T)= -0.76339752072D+02

 The electronic state is 1-A'.
 Alpha  occ. eigenvalues --  -20.56984  -1.33814  -0.71066  -0.57206  -0.50703
 Alpha virt. eigenvalues --    0.02929   0.04733   0.13630   0.15918   0.17288
 Alpha virt. eigenvalues --    0.18215   0.22638   0.24335   0.26358   0.30356
 Alpha virt. eigenvalues --    0.31219   0.36448   0.43067   0.46308   0.60066

 Mulliken charges:
               1
     1  O   -0.476571
     2  H    0.219589
     3  H    0.256983
 Sum of Mulliken charges =  -0.00000

 Dipole moment (field-independent basis, Debye):
    X=              0.0193    Y=             -1.9376    Z=              0.0000  Tot=              1.9377
 Quadrupole moment (field-independent basis, Debye-Ang):
   XX=             -4.0070   YY=             -6.3747   ZZ=             -7.6261
   XY=              0.1547   XZ=              0.0000   YZ=              0.0000

 3313794\CCSD=-76.3308759\CCSD(T)=-76.3397521\RMSD=4.685e-09\PG=CS [SG(
 Normal termination of Gaussian 16 at Wed Feb  8 13:54:15 2023.
