 Gaussian 16, Revision C.01,
 Gaussian 16:  ES64L-G16RevC.01  3-Jul-2019

 ------------------------------------
 #P wB97XD/6-311g** scf(maxcycle=200)
 ------------------------------------

 --------------
 Gaussian input
 --------------
 Symbolic Z-matrix:
 Charge =  0 Multiplicity = 1

                         Standard orientation:
 ---------------------------------------------------------------------
 Center     Atomic      Atomic             Coordinates (Angstroms)
 Number     Number       Type             X           Y           Z
 ---------------------------------------------------------------------
      1          8           0       -0.000000    0.000000    0.142133
      2          1           0        0.000000    0.716267   -0.568531
      3          1           0       -0.000000   -0.716267   -0.568531
 ---------------------------------------------------------------------

 SCF Done:  E(RwB97XD) =  -76.4152881950     A.U. after   11 cycles

 The electronic state is 1-A1.
 Alpha  occ. eigenvalues --  -19.24117  -1.09316  -0.56648  -0.48735  -0.38685
 Alpha virt. eigenvalues --    0.10433   0.17983   0.42498   0.50341   0.85286
 Alpha virt. eigenvalues --    0.86280   0.95243   1.16118   1.17962   1.39115
 Alpha virt. eigenvalues --    1.46178   1.79823   1.91636   2.10619   2.38073

 Mulliken charges:
               1
     1  O   -0.443992
     2  H    0.221996
     3  H    0.221996
 Sum of Mulliken charges =  -0.00000

 Dipole moment (field-independent basis, Debye):
    X=             -0.0000    Y=              0.0000    Z=             -2.2892  Tot=              2.2892
 Quadrupole moment (field-independent basis, Debye-Ang):
   XX=             -7.2662   YY=             -4.7894   ZZ=             -5.6480
   XY=              0.0000   XZ=              0.0000   YZ=              0.0000

 Normal termination of Gaussian 16 at Wed Feb  8 14:42:54 2023.
