 Gaussian 16, Revision C.01,
 Gaussian 16:  ES64L-G16RevC.01  3-Jul-2019

 ----------------------------------------
 #P PBE1PBE/aug-cc-pVDZ scf(maxcycle=200)
 ----------------------------------------

 --------------
 Gaussian input
 --------------
 Symbolic Z-matrix:
 Charge =  0 Multiplicity = 1

                         Standard orientation:
 ---------------------------------------------------------------------
 Center     Atomic      Atomic             Coordinates (Angstroms)
 Number     Number       Type             X           Y           Z
 ---------------------------------------------------------------------
      1          8           0       -0.000000   -0.000000    0.149435
      2          1           0        0.000000    0.678092   -0.597741
      3          1           0       -0.000000   -0.678092   -0.597741
 ---------------------------------------------------------------------

 SCF Done:  E(RPBE1PBE) =  -76.3474332289     A.U. after    8 cycles

 The electronic state is 1-A1.
 Alpha  occ. eigenvalues --  -19.24529  -1.04191  -0.49441  -0.44589  -0.33352
 Alpha virt. eigenvalues --   -0.01975   0.03215   0.10481   0.13411   0.14404
 Alpha virt. eigenvalues --    0.14860   0.18432   0.25887   0.26885   0.30001
 Alpha virt. eigenvalues --    0.30032   0.46400   0.49182   0.52837   0.60249

 Mulliken charges:
               1
     1  O   -0.314792
     2  H    0.157396
     3  H    0.157396
 Sum of Mulliken charges =  -0.00000

 Dipole moment (field-independent basis, Debye):
    X=             -0.0000    Y=              0.0000    Z=             -2.1616  Tot=              2.1616
 Quadrupole moment (field-independent basis, Debye-Ang):
   XX=             -7.8288   YY=             -5.2818   ZZ=             -5.8283
   XY=              0.0000   XZ=              0.0000   YZ=              0.0000

 Normal termination of Gaussian 16 at Mon Mar 20 17:35:44 2023.
