 Gaussian 16, Revision C.01,
 Gaussian 16:  ES64L-G16RevC.01  3-Jul-2019

 ----------------------------------------
 #P CCSD(T)/aug-cc-pVDZ scf(maxcycle=200)
 ----------------------------------------

 --------------
 Gaussian input
 --------------
 Symbolic Z-matrix:
 Charge =  0 Multiplicity = 1

                         Standard orientation:
 ---------------------------------------------------------------------
 Center     Atomic      Atomic             Coordinates (Angstroms)
 Number     Number       Type             X           Y           Z
 ---------------------------------------------------------------------
      1          8           0        0.000000    0.000000    0.132693
      2          1           0        0.000000    0.692458   -0.530771
      3          1           0       -0.000000   -0.692458   -0.530771
 ---------------------------------------------------------------------

 SCF Done:  E(RHF) =  -76.0366178245     A.U. after   10 cycles
 E2 =    -0.2206445912D+00 EUMP2 =    -0.76257262415660D+02
 CCSD(T)
 CCSD(T)= -0.76270126484D+02

 The electronic state is 1-A1.
 Alpha  occ. eigenvalues --  -20.58250  -1.36512  -0.69284  -0.60956  -0.51262
 Alpha virt. eigenvalues --    0.03425   0.05899   0.17236   0.19821   0.22329
 Alpha virt. eigenvalues --    0.23498   0.28486   0.35060   0.38189   0.39271
 Alpha virt. eigenvalues --    0.41667   0.55052   0.64350   0.66026   0.78396

 Mulliken charges:
               1
     1  O   -0.289876
     2  H    0.144938
     3  H    0.144938
 Sum of Mulliken charges =   0.00000

 Dipole moment (field-independent basis, Debye):
    X=             -0.0000    Y=              0.0000    Z=             -2.1858  Tot=              2.1858
 Quadrupole moment (field-independent basis, Debye-Ang):
   XX=             -7.5723   YY=             -4.8088   ZZ=             -5.8964
   XY=              0.0000   XZ=              0.0000   YZ=             -0.0000

 .2650161\CCSD=-76.2648041\CCSD(T)=-76.2701265\RMSD=5.915e-09\PG=C02V [
 Normal termination of Gaussian 16 at Wed Feb  8 14:49:43 2023.
