 Gaussian 16, Revision C.01,
 Gaussian 16:  ES64L-G16RevC.01  3-Jul-2019

 ----------------------------------------
 #P CCSD(T)/aug-cc-pVTZ scf(maxcycle=200)
 ----------------------------------------

 --------------
 Gaussian input
 --------------
 Symbolic Z-matrix:
 Charge =  0 Multiplicity = 1

                         Standard orientation:
 ---------------------------------------------------------------------
 Center     Atomic      Atomic             Coordinates (Angstroms)
 Number     Number       Type             X           Y           Z
 ---------------------------------------------------------------------
      1          8           0        0.000000    0.117051    0.000000
      2          1           0        0.727232   -0.508101    0.000000
      3          1           0       -0.727232   -0.428307   -0.000000
 ---------------------------------------------------------------------

 SCF Done:  E(RHF) =  -76.0591646119     A.U. after   10 cycles
 E2 =    -0.2666609723D+00 EUMP2 =    -0.76325825584142D+02
 CCSD(T)
 CCSD(T)= -0.76339147145D+02

 The electronic state is 1-A'.
 Alpha  occ. eigenvalues --  -20.56369  -1.36824  -0.72675  -0.59329  -0.51299
 Alpha virt. eigenvalues --    0.02956   0.04791   0.13564   0.15764   0.17604
 Alpha virt. eigenvalues --    0.18346   0.22900   0.24655   0.26625   0.29981
 Alpha virt. eigenvalues --    0.31002   0.36729   0.44156   0.47203   0.60004

 Mulliken charges:
               1
     1  O   -0.397123
     2  H    0.224617
     3  H    0.172506
 Sum of Mulliken charges =  -0.00000

 Dipole moment (field-independent basis, Debye):
    X=             -0.0236    Y=             -1.9967    Z=              0.0000  Tot=              1.9968
 Quadrupole moment (field-independent basis, Debye-Ang):
   XX=             -4.3887   YY=             -6.1603   ZZ=             -7.5000
   XY=             -0.1278   XZ=              0.0000   YZ=              0.0000

 311926\CCSD=-76.3307392\CCSD(T)=-76.3391471\RMSD=2.859e-09\PG=CS [SG(H
 Normal termination of Gaussian 16 at Wed Feb  8 13:51:35 2023.
