 Gaussian 16, Revision C.01,
 Gaussian 16:  ES64L-G16RevC.01  3-Jul-2019

 ------------------------------------
 #P wB97XD/6-311g** scf(maxcycle=200)
 ------------------------------------

 --------------
 Gaussian input
 --------------
 Symbolic Z-matrix:
 Charge =  0 Multiplicity = 1

                         Standard orientation:
 ---------------------------------------------------------------------
 Center     Atomic      Atomic             Coordinates (Angstroms)
 Number     Number       Type             X           Y           Z
 ---------------------------------------------------------------------
      1          8           0        0.000000    0.122056   -0.000000
      2          1           0        0.706453   -0.526485    0.000000
      3          1           0       -0.706453   -0.449963   -0.000000
 ---------------------------------------------------------------------

 SCF Done:  E(RwB97XD) =  -76.4196481986     A.U. after   12 cycles

 The electronic state is 1-A'.
 Alpha  occ. eigenvalues --  -19.22449  -1.11992  -0.60843  -0.47706  -0.39016
 Alpha virt. eigenvalues --    0.12180   0.19776   0.46550   0.54214   0.85162
 Alpha virt. eigenvalues --    0.85370   0.95886   1.15776   1.24183   1.37738
 Alpha virt. eigenvalues --    1.51820   1.80930   2.01881   2.19474   2.39031

 Mulliken charges:
               1
     1  O   -0.462847
     2  H    0.230389
     3  H    0.232458
 Sum of Mulliken charges =  -0.00000

 Dipole moment (field-independent basis, Debye):
    X=             -0.0447    Y=             -2.1573    Z=              0.0000  Tot=              2.1578
 Quadrupole moment (field-independent basis, Debye-Ang):
   XX=             -4.5188   YY=             -5.8581   ZZ=             -7.1097
   XY=             -0.1045   XZ=             -0.0000   YZ=              0.0000

 Normal termination of Gaussian 16 at Wed Feb  8 14:41:07 2023.
