 Gaussian 16, Revision C.01,
 Gaussian 16:  ES64L-G16RevC.01  3-Jul-2019

 ----------------------------------------
 #P CCSD(T)/aug-cc-pVDZ scf(maxcycle=200)
 ----------------------------------------

 --------------
 Gaussian input
 --------------
 Symbolic Z-matrix:
 Charge =  0 Multiplicity = 1

                         Standard orientation:
 ---------------------------------------------------------------------
 Center     Atomic      Atomic             Coordinates (Angstroms)
 Number     Number       Type             X           Y           Z
 ---------------------------------------------------------------------
      1          8           0        0.000000    0.000000    0.137445
      2          1           0        0.000000    0.668881   -0.549780
      3          1           0       -0.000000   -0.668881   -0.549780
 ---------------------------------------------------------------------

 SCF Done:  E(RHF) =  -76.0330913341     A.U. after   10 cycles
 E2 =    -0.2211876165D+00 EUMP2 =    -0.76254278950591D+02
 CCSD(T)
 CCSD(T)= -0.76267071441D+02

 The electronic state is 1-A1.
 Alpha  occ. eigenvalues --  -20.58392  -1.36861  -0.68365  -0.61779  -0.51366
 Alpha virt. eigenvalues --    0.03380   0.05934   0.17171   0.19869   0.22314
 Alpha virt. eigenvalues --    0.23599   0.28378   0.35706   0.37556   0.39512
 Alpha virt. eigenvalues --    0.41155   0.55417   0.64140   0.66054   0.77708

 Mulliken charges:
               1
     1  O   -0.291782
     2  H    0.145891
     3  H    0.145891
 Sum of Mulliken charges =   0.00000

 Dipole moment (field-independent basis, Debye):
    X=             -0.0000    Y=              0.0000    Z=             -2.2432  Tot=              2.2432
 Quadrupole moment (field-independent basis, Debye-Ang):
   XX=             -7.5665   YY=             -4.9861   ZZ=             -5.7748
   XY=              0.0000   XZ=              0.0000   YZ=             -0.0000

 19208\CCSD=-76.261699\CCSD(T)=-76.2670714\RMSD=5.695e-09\PG=C02V [C2(O
 Normal termination of Gaussian 16 at Wed Feb  8 14:48:48 2023.
