 Gaussian 16, Revision C.01,
 Gaussian 16:  ES64L-G16RevC.01  3-Jul-2019

 ------------------------------------
 #P wB97XD/6-311g** scf(maxcycle=200)
 ------------------------------------

 --------------
 Gaussian input
 --------------
 Symbolic Z-matrix:
 Charge =  0 Multiplicity = 1

                         Standard orientation:
 ---------------------------------------------------------------------
 Center     Atomic      Atomic             Coordinates (Angstroms)
 Number     Number       Type             X           Y           Z
 ---------------------------------------------------------------------
      1          8           0        0.000000    0.115105   -0.000000
      2          1           0        0.764207   -0.543734    0.000000
      3          1           0       -0.764207   -0.377104   -0.000000
 ---------------------------------------------------------------------

 SCF Done:  E(RwB97XD) =  -76.4181634922     A.U. after   12 cycles

 The electronic state is 1-A'.
 Alpha  occ. eigenvalues --  -19.22440  -1.10326  -0.61345  -0.45873  -0.38591
 Alpha virt. eigenvalues --    0.11721   0.19302   0.45431   0.52045   0.85072
 Alpha virt. eigenvalues --    0.85497   0.95154   1.15449   1.34585   1.36521
 Alpha virt. eigenvalues --    1.55996   1.72919   2.00565   2.15503   2.40084

 Mulliken charges:
               1
     1  O   -0.496354
     2  H    0.247464
     3  H    0.248890
 Sum of Mulliken charges =  -0.00000

 Dipole moment (field-independent basis, Debye):
    X=             -0.0839    Y=             -2.0688    Z=              0.0000  Tot=              2.0705
 Quadrupole moment (field-independent basis, Debye-Ang):
   XX=             -4.1539   YY=             -6.0517   ZZ=             -7.1710
   XY=             -0.2632   XZ=             -0.0000   YZ=             -0.0000

 Normal termination of Gaussian 16 at Wed Feb  8 14:42:22 2023.
