 Gaussian 16, Revision C.01,
 Gaussian 16:  ES64L-G16RevC.01  3-Jul-2019

 ------------------------------
 #P HF/6-31g* scf(maxcycle=200)
 ------------------------------

 --------------
 Gaussian input
 --------------
 Symbolic Z-matrix:
 Charge =  0 Multiplicity = 1

                         Standard orientation:
 ---------------------------------------------------------------------
 Center     Atomic      Atomic             Coordinates (Angstroms)
 Number     Number       Type             X           Y           Z
 ---------------------------------------------------------------------
      1          8           0        0.000000    0.142189    0.000000
      2          1           0        0.642020   -0.501311    0.000000
      3          1           0       -0.642020   -0.636201    0.000000
 ---------------------------------------------------------------------

 SCF Done:  E(RHF) =  -75.9917456126     A.U. after   10 cycles

 The electronic state is 1-A'.
 Alpha  occ. eigenvalues --  -20.57007  -1.36285  -0.66603  -0.61053  -0.50551
 Alpha virt. eigenvalues --    0.20021   0.30271   0.95565   1.12283   1.16268
 Alpha virt. eigenvalues --    1.22131   1.37342   1.50174   1.98854   2.04092
 Alpha virt. eigenvalues --    2.05365   2.66808   2.88555   3.92734

 Mulliken charges:
               1
     1  O   -0.829880
     2  H    0.424297
     3  H    0.405584
 Sum of Mulliken charges =   0.00000

 Dipole moment (field-independent basis, Debye):
    X=              0.1039    Y=             -2.5421    Z=              0.0000  Tot=              2.5442
 Quadrupole moment (field-independent basis, Debye-Ang):
   XX=             -5.0761   YY=             -5.4020   ZZ=             -7.2346
   XY=              0.1372   XZ=              0.0000   YZ=              0.0000

 Normal termination of Gaussian 16 at Wed Feb  8 15:05:21 2023.
