 Gaussian 16, Revision C.01,
 Gaussian 16:  ES64L-G16RevC.01  3-Jul-2019

 ----------------------------------------
 #P PBE1PBE/aug-cc-pVDZ scf(maxcycle=200)
 ----------------------------------------

 --------------
 Gaussian input
 --------------
 Symbolic Z-matrix:
 Charge =  0 Multiplicity = 1

                         Standard orientation:
 ---------------------------------------------------------------------
 Center     Atomic      Atomic             Coordinates (Angstroms)
 Number     Number       Type             X           Y           Z
 ---------------------------------------------------------------------
      1          8           0        0.000000    0.000000    0.095247
      2          1           0        0.000000    0.832395   -0.380988
      3          1           0       -0.000000   -0.832395   -0.380988
 ---------------------------------------------------------------------

 SCF Done:  E(RPBE1PBE) =  -76.3544938827     A.U. after    8 cycles

 The electronic state is 1-A1.
 Alpha  occ. eigenvalues --  -19.22392  -1.03787  -0.57810  -0.38224  -0.32990
 Alpha virt. eigenvalues --   -0.01101   0.03116   0.11401   0.13041   0.13637
 Alpha virt. eigenvalues --    0.16194   0.20428   0.21857   0.28276   0.33685
 Alpha virt. eigenvalues --    0.35890   0.43490   0.51952   0.53538   0.67905

 Mulliken charges:
               1
     1  O   -0.268294
     2  H    0.134147
     3  H    0.134147
 Sum of Mulliken charges =   0.00000

 Dipole moment (field-independent basis, Debye):
    X=             -0.0000    Y=              0.0000    Z=             -1.6068  Tot=              1.6068
 Quadrupole moment (field-independent basis, Debye-Ang):
   XX=             -7.7864   YY=             -3.8184   ZZ=             -6.9004
   XY=              0.0000   XZ=              0.0000   YZ=             -0.0000

 Normal termination of Gaussian 16 at Mon Mar 20 17:34:38 2023.
