 Gaussian 16, Revision C.01,
 Gaussian 16:  ES64L-G16RevC.01  3-Jul-2019

 ------------------------------------
 #P wB97XD/6-311g** scf(maxcycle=200)
 ------------------------------------

 --------------
 Gaussian input
 --------------
 Symbolic Z-matrix:
 Charge =  0 Multiplicity = 1

                         Standard orientation:
 ---------------------------------------------------------------------
 Center     Atomic      Atomic             Coordinates (Angstroms)
 Number     Number       Type             X           Y           Z
 ---------------------------------------------------------------------
      1          8           0        0.000000   -0.000000    0.103829
      2          1           0        0.000000    0.806330   -0.415317
      3          1           0       -0.000000   -0.806330   -0.415317
 ---------------------------------------------------------------------

 SCF Done:  E(RwB97XD) =  -76.4208923423     A.U. after   12 cycles

 The electronic state is 1-A1.
 Alpha  occ. eigenvalues --  -19.22043  -1.09488  -0.62628  -0.44317  -0.38329
 Alpha virt. eigenvalues --    0.12072   0.19256   0.47855   0.48578   0.85017
 Alpha virt. eigenvalues --    0.85678   0.94660   1.15065   1.32363   1.47545
 Alpha virt. eigenvalues --    1.59682   1.67970   2.07180   2.11053   2.43902

 Mulliken charges:
               1
     1  O   -0.523502
     2  H    0.261751
     3  H    0.261751
 Sum of Mulliken charges =  -0.00000

 Dipole moment (field-independent basis, Debye):
    X=             -0.0000    Y=              0.0000    Z=             -1.9446  Tot=              1.9446
 Quadrupole moment (field-independent basis, Debye-Ang):
   XX=             -7.1814   YY=             -3.7851   ZZ=             -6.2878
   XY=              0.0000   XZ=              0.0000   YZ=             -0.0000

 Normal termination of Gaussian 16 at Wed Feb  8 14:41:39 2023.
