 Gaussian 16, Revision C.01,
 Gaussian 16:  ES64L-G16RevC.01  3-Jul-2019

 ----------------------------------------
 #P CCSD(T)/aug-cc-pVTZ scf(maxcycle=200)
 ----------------------------------------

 --------------
 Gaussian input
 --------------
 Symbolic Z-matrix:
 Charge =  0 Multiplicity = 1

                         Standard orientation:
 ---------------------------------------------------------------------
 Center     Atomic      Atomic             Coordinates (Angstroms)
 Number     Number       Type             X           Y           Z
 ---------------------------------------------------------------------
      1          8           0        0.000000    0.117887   -0.000000
      2          1           0        0.787213   -0.513283    0.000000
      3          1           0       -0.787213   -0.429814    0.000000
 ---------------------------------------------------------------------

 SCF Done:  E(RHF) =  -76.0564175891     A.U. after   10 cycles
 E2 =    -0.2703513042D+00 EUMP2 =    -0.76326768893360D+02
 CCSD(T)
 CCSD(T)= -0.76340151530D+02

 The electronic state is 1-A'.
 Alpha  occ. eigenvalues --  -20.57081  -1.33947  -0.70715  -0.57587  -0.50767
 Alpha virt. eigenvalues --    0.02918   0.04746   0.13603   0.15949   0.17344
 Alpha virt. eigenvalues --    0.18263   0.22568   0.24364   0.26435   0.30142
 Alpha virt. eigenvalues --    0.31079   0.36469   0.43096   0.46293   0.59937

 Mulliken charges:
               1
     1  O   -0.475741
     2  H    0.256448
     3  H    0.219293
 Sum of Mulliken charges =  -0.00000

 Dipole moment (field-independent basis, Debye):
    X=             -0.0207    Y=             -1.9721    Z=              0.0000  Tot=              1.9722
 Quadrupole moment (field-independent basis, Debye-Ang):
   XX=             -4.0986   YY=             -6.3124   ZZ=             -7.6222
   XY=             -0.1468   XZ=              0.0000   YZ=              0.0000

 .3317693\CCSD=-76.3312648\CCSD(T)=-76.3401515\RMSD=4.730e-09\PG=CS [SG
 Normal termination of Gaussian 16 at Wed Feb  8 13:58:01 2023.
