 Gaussian 16, Revision C.01,
 Gaussian 16:  ES64L-G16RevC.01  3-Jul-2019

 ------------------------------
 #P HF/6-31g* scf(maxcycle=200)
 ------------------------------

 --------------
 Gaussian input
 --------------
 Symbolic Z-matrix:
 Charge =  0 Multiplicity = 1

                         Standard orientation:
 ---------------------------------------------------------------------
 Center     Atomic      Atomic             Coordinates (Angstroms)
 Number     Number       Type             X           Y           Z
 ---------------------------------------------------------------------
      1          8           0        0.000000    0.104169    0.000000
      2          1           0        0.801514   -0.508738    0.000000
      3          1           0       -0.801514   -0.324615   -0.000000
 ---------------------------------------------------------------------

 SCF Done:  E(RHF) =  -76.0028758053     A.U. after   10 cycles

 The electronic state is 1-A'.
 Alpha  occ. eigenvalues --  -20.55420  -1.33510  -0.72332  -0.54982  -0.49370
 Alpha virt. eigenvalues --    0.20836   0.30520   1.04164   1.11945   1.16695
 Alpha virt. eigenvalues --    1.17084   1.38987   1.41023   2.02607   2.04939
 Alpha virt. eigenvalues --    2.08001   2.62662   2.95367   3.98864

 Mulliken charges:
               1
     1  O   -0.883757
     2  H    0.439842
     3  H    0.443916
 Sum of Mulliken charges =  -0.00000

 Dipole moment (field-independent basis, Debye):
    X=             -0.0674    Y=             -2.0444    Z=             -0.0000  Tot=              2.0455
 Quadrupole moment (field-independent basis, Debye-Ang):
   XX=             -3.7024   YY=             -6.1996   ZZ=             -7.2289
   XY=             -0.3396   XZ=              0.0000   YZ=             -0.0000

 Normal termination of Gaussian 16 at Wed Feb  8 15:06:51 2023.
