 Gaussian 16, Revision C.01,
 Gaussian 16:  ES64L-G16RevC.01  3-Jul-2019

 -----------------------------------
 #P HF/aug-cc-pVDZ scf(maxcycle=200)
 -----------------------------------

 --------------
 Gaussian input
 --------------
 Symbolic Z-matrix:
 Charge =  0 Multiplicity = 1

                         Standard orientation:
 ---------------------------------------------------------------------
 Center     Atomic      Atomic             Coordinates (Angstroms)
 Number     Number       Type             X           Y           Z
 ---------------------------------------------------------------------
      1          8           0        0.000000    0.119572    0.000000
      2          1           0        0.716953   -0.439230    0.000000
      3          1           0       -0.716953   -0.517343    0.000000
 ---------------------------------------------------------------------

 SCF Done:  E(RHF) =  -76.0391988628     A.U. after   10 cycles

 The electronic state is 1-A'.
 Alpha  occ. eigenvalues --  -20.57481  -1.37289  -0.72385  -0.59804  -0.51260
 Alpha virt. eigenvalues --    0.03542   0.05840   0.17278   0.19598   0.22422
 Alpha virt. eigenvalues --    0.23190   0.29491   0.34153   0.38952   0.40012
 Alpha virt. eigenvalues --    0.43185   0.54665   0.65003   0.66120   0.81440

 Mulliken charges:
               1
     1  O   -0.238589
     2  H    0.091909
     3  H    0.146680
 Sum of Mulliken charges =   0.00000

 Dipole moment (field-independent basis, Debye):
    X=              0.0259    Y=             -2.0440    Z=              0.0000  Tot=              2.0441
 Quadrupole moment (field-independent basis, Debye-Ang):
   XX=             -4.5073   YY=             -6.1234   ZZ=             -7.5248
   XY=              0.1235   XZ=              0.0000   YZ=              0.0000

 Normal termination of Gaussian 16 at Mon Feb 20 10:14:56 2023.
