 Gaussian 16, Revision C.01,
 Gaussian 16:  ES64L-G16RevC.01  3-Jul-2019

 ------------------------------
 #P HF/6-31g* scf(maxcycle=200)
 ------------------------------

 --------------
 Gaussian input
 --------------
 Symbolic Z-matrix:
 Charge =  0 Multiplicity = 1

                         Standard orientation:
 ---------------------------------------------------------------------
 Center     Atomic      Atomic             Coordinates (Angstroms)
 Number     Number       Type             X           Y           Z
 ---------------------------------------------------------------------
      1          8           0        0.000000    0.000000    0.128046
      2          1           0        0.000000    0.645279   -0.512185
      3          1           0       -0.000000   -0.645279   -0.512185
 ---------------------------------------------------------------------

 SCF Done:  E(RHF) =  -75.9988279641     A.U. after   10 cycles

 The electronic state is 1-A1.
 Alpha  occ. eigenvalues --  -20.55725  -1.38334  -0.70227  -0.61011  -0.50657
 Alpha virt. eigenvalues --    0.21476   0.31697   0.99239   1.12854   1.16430
 Alpha virt. eigenvalues --    1.28349   1.39146   1.48758   1.97416   2.03534
 Alpha virt. eigenvalues --    2.04157   2.73047   2.96823   3.96438

 Mulliken charges:
               1
     1  O   -0.842654
     2  H    0.421327
     3  H    0.421327
 Sum of Mulliken charges =  -0.00000

 Dipole moment (field-independent basis, Debye):
    X=             -0.0000    Y=              0.0000    Z=             -2.4083  Tot=              2.4083
 Quadrupole moment (field-independent basis, Debye-Ang):
   XX=             -7.1292   YY=             -4.8253   ZZ=             -5.5917
   XY=              0.0000   XZ=              0.0000   YZ=             -0.0000

 Normal termination of Gaussian 16 at Wed Feb  8 15:04:41 2023.
