 Gaussian 16, Revision C.01,
 Gaussian 16:  ES64L-G16RevC.01  3-Jul-2019

 ----------------------------------------
 #P PBE1PBE/aug-cc-pVDZ scf(maxcycle=200)
 ----------------------------------------

 --------------
 Gaussian input
 --------------
 Symbolic Z-matrix:
 Charge =  0 Multiplicity = 1

                         Standard orientation:
 ---------------------------------------------------------------------
 Center     Atomic      Atomic             Coordinates (Angstroms)
 Number     Number       Type             X           Y           Z
 ---------------------------------------------------------------------
      1          8           0        0.000000   -0.000000    0.121116
      2          1           0        0.000000    0.677902   -0.484466
      3          1           0       -0.000000   -0.677902   -0.484466
 ---------------------------------------------------------------------

 SCF Done:  E(RPBE1PBE) =  -76.3511977130     A.U. after    8 cycles

 The electronic state is 1-A1.
 Alpha  occ. eigenvalues --  -19.22512  -1.07870  -0.55544  -0.43139  -0.33904
 Alpha virt. eigenvalues --   -0.00953   0.03551   0.11259   0.13141   0.15108
 Alpha virt. eigenvalues --    0.17453   0.19669   0.25745   0.29884   0.30070
 Alpha virt. eigenvalues --    0.33027   0.46959   0.52956   0.55430   0.63698

 Mulliken charges:
               1
     1  O   -0.105706
     2  H    0.052853
     3  H    0.052853
 Sum of Mulliken charges =   0.00000

 Dipole moment (field-independent basis, Debye):
    X=             -0.0000    Y=             -0.0000    Z=             -1.9515  Tot=              1.9515
 Quadrupole moment (field-independent basis, Debye-Ang):
   XX=             -7.6062   YY=             -4.8745   ZZ=             -6.1734
   XY=              0.0000   XZ=              0.0000   YZ=              0.0000

 Normal termination of Gaussian 16 at Mon Mar 20 17:56:55 2023.
