 Gaussian 16, Revision C.01,
 Gaussian 16:  ES64L-G16RevC.01  3-Jul-2019

 ------------------------------------
 #P wB97XD/6-311g** scf(maxcycle=200)
 ------------------------------------

 --------------
 Gaussian input
 --------------
 Symbolic Z-matrix:
 Charge =  0 Multiplicity = 1

                         Standard orientation:
 ---------------------------------------------------------------------
 Center     Atomic      Atomic             Coordinates (Angstroms)
 Number     Number       Type             X           Y           Z
 ---------------------------------------------------------------------
      1          8           0        0.000000    0.143443    0.000000
      2          1           0        0.673280   -0.539473    0.000000
      3          1           0       -0.673280   -0.608072    0.000000
 ---------------------------------------------------------------------

 SCF Done:  E(RwB97XD) =  -76.4137252952     A.U. after   12 cycles

 The electronic state is 1-A'.
 Alpha  occ. eigenvalues --  -19.23868  -1.10799  -0.56628  -0.49784  -0.38973
 Alpha virt. eigenvalues --    0.10715   0.18676   0.43057   0.52075   0.85231
 Alpha virt. eigenvalues --    0.86238   0.95727   1.12721   1.18443   1.41485
 Alpha virt. eigenvalues --    1.43708   1.84550   1.93899   2.14678   2.41022

 Mulliken charges:
               1
     1  O   -0.429087
     2  H    0.215391
     3  H    0.213695
 Sum of Mulliken charges =  -0.00000

 Dipole moment (field-independent basis, Debye):
    X=              0.0484    Y=             -2.3163    Z=              0.0000  Tot=              2.3168
 Quadrupole moment (field-independent basis, Debye-Ang):
   XX=             -4.9908   YY=             -5.5376   ZZ=             -7.2098
   XY=              0.0747   XZ=              0.0000   YZ=              0.0000

 Normal termination of Gaussian 16 at Wed Feb  8 14:41:41 2023.
