 Gaussian 16, Revision C.01,
 Gaussian 16:  ES64L-G16RevC.01  3-Jul-2019

 ----------------------------------------
 #P CCSD(T)/aug-cc-pVDZ scf(maxcycle=200)
 ----------------------------------------

 --------------
 Gaussian input
 --------------
 Symbolic Z-matrix:
 Charge =  0 Multiplicity = 1

                         Standard orientation:
 ---------------------------------------------------------------------
 Center     Atomic      Atomic             Coordinates (Angstroms)
 Number     Number       Type             X           Y           Z
 ---------------------------------------------------------------------
      1          8           0        0.000000    0.109487   -0.000000
      2          1           0        0.816810   -0.482883    0.000000
      3          1           0       -0.816810   -0.393009   -0.000000
 ---------------------------------------------------------------------

 SCF Done:  E(RHF) =  -76.0359525819     A.U. after   10 cycles
 E2 =    -0.2213103132D+00 EUMP2 =    -0.76257262895072D+02
 CCSD(T)
 CCSD(T)= -0.76270318541D+02

 The electronic state is 1-A'.
 Alpha  occ. eigenvalues --  -20.57756  -1.33853  -0.71898  -0.56505  -0.50483
 Alpha virt. eigenvalues --    0.03548   0.05707   0.17547   0.19714   0.21791
 Alpha virt. eigenvalues --    0.22960   0.28817   0.31725   0.37914   0.41628
 Alpha virt. eigenvalues --    0.44231   0.52695   0.63916   0.65707   0.82152

 Mulliken charges:
               1
     1  O   -0.376623
     2  H    0.217093
     3  H    0.159530
 Sum of Mulliken charges =   0.00000

 Dipole moment (field-independent basis, Debye):
    X=             -0.0176    Y=             -1.8831    Z=              0.0000  Tot=              1.8832
 Quadrupole moment (field-independent basis, Debye-Ang):
   XX=             -3.8577   YY=             -6.5178   ZZ=             -7.6693
   XY=             -0.1735   XZ=              0.0000   YZ=             -0.0000

 26515\CCSD=-76.2649411\CCSD(T)=-76.2703185\RMSD=9.372e-09\PG=CS [SG(H2
 Normal termination of Gaussian 16 at Wed Feb  8 14:50:55 2023.
