 Gaussian 16, Revision C.01,
 Gaussian 16:  ES64L-G16RevC.01  3-Jul-2019

 ----------------------------------------
 #P CCSD(T)/aug-cc-pVTZ scf(maxcycle=200)
 ----------------------------------------

 --------------
 Gaussian input
 --------------
 Symbolic Z-matrix:
 Charge =  0 Multiplicity = 1

                         Standard orientation:
 ---------------------------------------------------------------------
 Center     Atomic      Atomic             Coordinates (Angstroms)
 Number     Number       Type             X           Y           Z
 ---------------------------------------------------------------------
      1          8           0        0.000000    0.090027    0.000000
      2          1           0        0.817110   -0.308234    0.000000
      3          1           0       -0.817110   -0.411981    0.000000
 ---------------------------------------------------------------------

 SCF Done:  E(RHF) =  -76.0536481682     A.U. after   10 cycles
 E2 =    -0.2660441925D+00 EUMP2 =    -0.76319692360734D+02
 CCSD(T)
 CCSD(T)= -0.76332918165D+02

 The electronic state is 1-A'.
 Alpha  occ. eigenvalues --  -20.55450  -1.35413  -0.76284  -0.55496  -0.50708
 Alpha virt. eigenvalues --    0.03062   0.04679   0.13791   0.15387   0.17064
 Alpha virt. eigenvalues --    0.17919   0.23473   0.24265   0.25962   0.32195
 Alpha virt. eigenvalues --    0.32693   0.36341   0.43878   0.46973   0.61571

 Mulliken charges:
               1
     1  O   -0.401184
     2  H    0.173857
     3  H    0.227327
 Sum of Mulliken charges =  -0.00000

 Dipole moment (field-independent basis, Debye):
    X=              0.0095    Y=             -1.6435    Z=              0.0000  Tot=              1.6435
 Quadrupole moment (field-independent basis, Debye-Ang):
   XX=             -3.5807   YY=             -6.7239   ZZ=             -7.5383
   XY=              0.2159   XZ=              0.0000   YZ=              0.0000

 .3250046\CCSD=-76.3245521\CCSD(T)=-76.3329182\RMSD=2.466e-09\PG=CS [SG
 Normal termination of Gaussian 16 at Wed Feb  8 13:51:11 2023.
