 Gaussian 16, Revision C.01,
 Gaussian 16:  ES64L-G16RevC.01  3-Jul-2019

 ------------------------------------
 #P wB97XD/6-311g** scf(maxcycle=200)
 ------------------------------------

 --------------
 Gaussian input
 --------------
 Symbolic Z-matrix:
 Charge =  0 Multiplicity = 1

                         Standard orientation:
 ---------------------------------------------------------------------
 Center     Atomic      Atomic             Coordinates (Angstroms)
 Number     Number       Type             X           Y           Z
 ---------------------------------------------------------------------
      1          8           0        0.000000    0.092742    0.000000
      2          1           0        0.834542   -0.267564    0.000000
      3          1           0       -0.834542   -0.474374    0.000000
 ---------------------------------------------------------------------

 SCF Done:  E(RwB97XD) =  -76.4110125427     A.U. after   12 cycles

 The electronic state is 1-A'.
 Alpha  occ. eigenvalues --  -19.21499  -1.09093  -0.63690  -0.42822  -0.38081
 Alpha virt. eigenvalues --    0.11870   0.19355   0.44289   0.51872   0.85139
 Alpha virt. eigenvalues --    0.85773   0.94362   1.15198   1.30923   1.55771
 Alpha virt. eigenvalues --    1.62958   1.63115   2.05316   2.13497   2.50199

 Mulliken charges:
               1
     1  O   -0.551387
     2  H    0.274187
     3  H    0.277199
 Sum of Mulliken charges =  -0.00000

 Dipole moment (field-independent basis, Debye):
    X=              0.0657    Y=             -1.8006    Z=              0.0000  Tot=              1.8018
 Quadrupole moment (field-independent basis, Debye-Ang):
   XX=             -3.4894   YY=             -6.4263   ZZ=             -7.1881
   XY=              0.4062   XZ=              0.0000   YZ=              0.0000

 Normal termination of Gaussian 16 at Wed Feb  8 14:40:58 2023.
