 Gaussian 16, Revision C.01,
 Gaussian 16:  ES64L-G16RevC.01  3-Jul-2019

 ------------------------------------
 #P wB97XD/6-311g** scf(maxcycle=200)
 ------------------------------------

 --------------
 Gaussian input
 --------------
 Symbolic Z-matrix:
 Charge =  0 Multiplicity = 1

                         Standard orientation:
 ---------------------------------------------------------------------
 Center     Atomic      Atomic             Coordinates (Angstroms)
 Number     Number       Type             X           Y           Z
 ---------------------------------------------------------------------
      1          8           0       -0.000000   -0.000000    0.116311
      2          1           0        0.000000    0.698624   -0.465244
      3          1           0       -0.000000   -0.698624   -0.465244
 ---------------------------------------------------------------------

 SCF Done:  E(RwB97XD) =  -76.4174496518     A.U. after   11 cycles

 The electronic state is 1-A1.
 Alpha  occ. eigenvalues --  -19.21916  -1.12972  -0.62232  -0.47524  -0.39174
 Alpha virt. eigenvalues --    0.12768   0.20232   0.48423   0.55044   0.84858
 Alpha virt. eigenvalues --    0.85345   0.96185   1.15245   1.26348   1.37643
 Alpha virt. eigenvalues --    1.53466   1.81732   2.06454   2.20479   2.40902

 Mulliken charges:
               1
     1  O   -0.467477
     2  H    0.233739
     3  H    0.233739
 Sum of Mulliken charges =  -0.00000

 Dipole moment (field-independent basis, Debye):
    X=             -0.0000    Y=             -0.0000    Z=             -2.1170  Tot=              2.1170
 Quadrupole moment (field-independent basis, Debye-Ang):
   XX=             -7.0556   YY=             -4.4676   ZZ=             -5.9056
   XY=              0.0000   XZ=              0.0000   YZ=              0.0000

 Normal termination of Gaussian 16 at Wed Feb  8 14:39:58 2023.
