 Gaussian 16, Revision C.01,
 Gaussian 16:  ES64L-G16RevC.01  3-Jul-2019

 ------------------------------
 #P HF/6-31g* scf(maxcycle=200)
 ------------------------------

 --------------
 Gaussian input
 --------------
 Symbolic Z-matrix:
 Charge =  0 Multiplicity = 1

                         Standard orientation:
 ---------------------------------------------------------------------
 Center     Atomic      Atomic             Coordinates (Angstroms)
 Number     Number       Type             X           Y           Z
 ---------------------------------------------------------------------
      1          8           0        0.000000    0.000000    0.100213
      2          1           0        0.000000    0.875794   -0.400852
      3          1           0       -0.000000   -0.875794   -0.400852
 ---------------------------------------------------------------------

 SCF Done:  E(RHF) =  -75.9962045599     A.U. after   10 cycles

 The electronic state is 1-A1.
 Alpha  occ. eigenvalues --  -20.55888  -1.30430  -0.70207  -0.52984  -0.48674
 Alpha virt. eigenvalues --    0.19587   0.29310   1.01243   1.07943   1.16091
 Alpha virt. eigenvalues --    1.17369   1.37681   1.39194   2.03647   2.07498
 Alpha virt. eigenvalues --    2.09433   2.61798   2.80955   3.96734

 Mulliken charges:
               1
     1  O   -0.896307
     2  H    0.448154
     3  H    0.448154
 Sum of Mulliken charges =   0.00000

 Dipole moment (field-independent basis, Debye):
    X=             -0.0000    Y=              0.0000    Z=             -1.9611  Tot=              1.9611
 Quadrupole moment (field-independent basis, Debye-Ang):
   XX=             -7.3358   YY=             -3.2288   ZZ=             -6.4349
   XY=              0.0000   XZ=              0.0000   YZ=             -0.0000

 Normal termination of Gaussian 16 at Wed Feb  8 15:07:45 2023.
