 Gaussian 16, Revision C.01,
 Gaussian 16:  ES64L-G16RevC.01  3-Jul-2019

 ------------------------------------
 #P wB97XD/6-311g** scf(maxcycle=200)
 ------------------------------------

 --------------
 Gaussian input
 --------------
 Symbolic Z-matrix:
 Charge =  0 Multiplicity = 1

                         Standard orientation:
 ---------------------------------------------------------------------
 Center     Atomic      Atomic             Coordinates (Angstroms)
 Number     Number       Type             X           Y           Z
 ---------------------------------------------------------------------
      1          8           0        0.000000    0.000000    0.113855
      2          1           0       -0.000000    0.708667   -0.455419
      3          1           0       -0.000000   -0.708667   -0.455419
 ---------------------------------------------------------------------

 SCF Done:  E(RwB97XD) =  -76.4179364679     A.U. after   11 cycles

 The electronic state is 1-A1.
 Alpha  occ. eigenvalues --  -19.21823  -1.12783  -0.62635  -0.47121  -0.39121
 Alpha virt. eigenvalues --    0.12834   0.20217   0.48748   0.54540   0.84802
 Alpha virt. eigenvalues --    0.85370   0.96084   1.15071   1.29068   1.36912
 Alpha virt. eigenvalues --    1.54708   1.80334   2.07363   2.19694   2.41006

 Mulliken charges:
               1
     1  O   -0.474443
     2  H    0.237222
     3  H    0.237222
 Sum of Mulliken charges =   0.00000

 Dipole moment (field-independent basis, Debye):
    X=             -0.0000    Y=              0.0000    Z=             -2.0921  Tot=              2.0921
 Quadrupole moment (field-independent basis, Debye-Ang):
   XX=             -7.0570   YY=             -4.3880   ZZ=             -5.9553
   XY=              0.0000   XZ=              0.0000   YZ=             -0.0000

 Normal termination of Gaussian 16 at Wed Feb  8 14:39:58 2023.
