 Gaussian 16, Revision C.01,
 Gaussian 16:  ES64L-G16RevC.01  3-Jul-2019

 ------------------------------
 #P HF/6-31g* scf(maxcycle=200)
 ------------------------------

 --------------
 Gaussian input
 --------------
 Symbolic Z-matrix:
 Charge =  0 Multiplicity = 1

                         Standard orientation:
 ---------------------------------------------------------------------
 Center     Atomic      Atomic             Coordinates (Angstroms)
 Number     Number       Type             X           Y           Z
 ---------------------------------------------------------------------
      1          8           0        0.000000    0.000000    0.087513
      2          1           0       -0.000000    0.796754   -0.350053
      3          1           0       -0.000000   -0.796754   -0.350053
 ---------------------------------------------------------------------

 SCF Done:  E(RHF) =  -76.0009006884     A.U. after   10 cycles

 The electronic state is 1-A1.
 Alpha  occ. eigenvalues --  -20.54041  -1.35258  -0.76639  -0.54318  -0.49440
 Alpha virt. eigenvalues --    0.22233   0.31525   1.08564   1.15728   1.16848
 Alpha virt. eigenvalues --    1.17236   1.40450   1.41472   2.00638   2.06061
 Alpha virt. eigenvalues --    2.08046   2.76218   2.95908   4.02978

 Mulliken charges:
               1
     1  O   -0.901839
     2  H    0.450919
     3  H    0.450919
 Sum of Mulliken charges =  -0.00000

 Dipole moment (field-independent basis, Debye):
    X=             -0.0000    Y=              0.0000    Z=             -1.8366  Tot=              1.8366
 Quadrupole moment (field-independent basis, Debye-Ang):
   XX=             -7.1261   YY=             -3.4883   ZZ=             -6.3904
   XY=              0.0000   XZ=              0.0000   YZ=              0.0000

 Normal termination of Gaussian 16 at Wed Feb  8 15:05:00 2023.
