 Gaussian 16, Revision C.01,
 Gaussian 16:  ES64L-G16RevC.01  3-Jul-2019

 ------------------------------------
 #P wB97XD/6-311g** scf(maxcycle=200)
 ------------------------------------

 --------------
 Gaussian input
 --------------
 Symbolic Z-matrix:
 Charge =  0 Multiplicity = 1

                         Standard orientation:
 ---------------------------------------------------------------------
 Center     Atomic      Atomic             Coordinates (Angstroms)
 Number     Number       Type             X           Y           Z
 ---------------------------------------------------------------------
      1          8           0        0.000000    0.138368    0.000000
      2          1           0        0.627054   -0.587224   -0.000000
      3          1           0       -0.627054   -0.519723    0.000000
 ---------------------------------------------------------------------

 SCF Done:  E(RwB97XD) =  -76.4090238789     A.U. after   12 cycles

 The electronic state is 1-A'.
 Alpha  occ. eigenvalues --  -19.23066  -1.13436  -0.57793  -0.50640  -0.39404
 Alpha virt. eigenvalues --    0.11580   0.19885   0.45201   0.55020   0.85185
 Alpha virt. eigenvalues --    0.85740   0.96528   1.12453   1.18461   1.42157
 Alpha virt. eigenvalues --    1.44296   1.90935   1.98502   2.21215   2.45466

 Mulliken charges:
               1
     1  O   -0.421310
     2  H    0.209261
     3  H    0.212049
 Sum of Mulliken charges =  -0.00000

 Dipole moment (field-independent basis, Debye):
    X=             -0.0478    Y=             -2.3060    Z=             -0.0000  Tot=              2.3065
 Quadrupole moment (field-independent basis, Debye-Ang):
   XX=             -5.0980   YY=             -5.4966   ZZ=             -7.1016
   XY=             -0.0688   XZ=              0.0000   YZ=             -0.0000

 Normal termination of Gaussian 16 at Wed Feb  8 14:40:57 2023.
