 Gaussian 16, Revision C.01,
 Gaussian 16:  ES64L-G16RevC.01  3-Jul-2019

 ----------------------------------------
 #P PBE1PBE/aug-cc-pVDZ scf(maxcycle=200)
 ----------------------------------------

 --------------
 Gaussian input
 --------------
 Symbolic Z-matrix:
 Charge =  0 Multiplicity = 1

                         Standard orientation:
 ---------------------------------------------------------------------
 Center     Atomic      Atomic             Coordinates (Angstroms)
 Number     Number       Type             X           Y           Z
 ---------------------------------------------------------------------
      1          8           0        0.000000    0.128584    0.000000
      2          1           0        0.744360   -0.552599    0.000000
      3          1           0       -0.744360   -0.476073   -0.000000
 ---------------------------------------------------------------------

 SCF Done:  E(RPBE1PBE) =  -76.3572919359     A.U. after    9 cycles

 The electronic state is 1-A'.
 Alpha  occ. eigenvalues --  -19.23659  -1.04210  -0.53105  -0.42037  -0.33239
 Alpha virt. eigenvalues --   -0.01498   0.03206   0.10988   0.13277   0.14226
 Alpha virt. eigenvalues --    0.16058   0.18599   0.24390   0.29052   0.29254
 Alpha virt. eigenvalues --    0.32223   0.45515   0.50458   0.53591   0.62503

 Mulliken charges:
               1
     1  O   -0.266608
     2  H    0.157621
     3  H    0.108987
 Sum of Mulliken charges =   0.00000

 Dipole moment (field-independent basis, Debye):
    X=             -0.0266    Y=             -1.9661    Z=             -0.0000  Tot=              1.9662
 Quadrupole moment (field-independent basis, Debye-Ang):
   XX=             -4.6862   YY=             -6.2555   ZZ=             -7.7956
   XY=             -0.1175   XZ=              0.0000   YZ=             -0.0000

 Normal termination of Gaussian 16 at Mon Mar 20 17:35:29 2023.
