 Gaussian 16, Revision C.01,
 Gaussian 16:  ES64L-G16RevC.01  3-Jul-2019

 ----------------------------------------
 #P PBE1PBE/aug-cc-pVDZ scf(maxcycle=200)
 ----------------------------------------

 --------------
 Gaussian input
 --------------
 Symbolic Z-matrix:
 Charge =  0 Multiplicity = 1

                         Standard orientation:
 ---------------------------------------------------------------------
 Center     Atomic      Atomic             Coordinates (Angstroms)
 Number     Number       Type             X           Y           Z
 ---------------------------------------------------------------------
      1          8           0        0.000000   -0.000000    0.098138
      2          1           0        0.000000    0.823957   -0.392552
      3          1           0       -0.000000   -0.823957   -0.392552
 ---------------------------------------------------------------------

 SCF Done:  E(RPBE1PBE) =  -76.3557070369     A.U. after    8 cycles

 The electronic state is 1-A1.
 Alpha  occ. eigenvalues --  -19.22482  -1.03907  -0.57517  -0.38574  -0.33031
 Alpha virt. eigenvalues --   -0.01104   0.03134   0.11393   0.13058   0.13757
 Alpha virt. eigenvalues --    0.16243   0.20235   0.22068   0.28378   0.33263
 Alpha virt. eigenvalues --    0.35562   0.43741   0.51975   0.53598   0.67337

 Mulliken charges:
               1
     1  O   -0.261164
     2  H    0.130582
     3  H    0.130582
 Sum of Mulliken charges =   0.00000

 Dipole moment (field-independent basis, Debye):
    X=             -0.0000    Y=              0.0000    Z=             -1.6424  Tot=              1.6424
 Quadrupole moment (field-independent basis, Debye-Ang):
   XX=             -7.7811   YY=             -3.8979   ZZ=             -6.8430
   XY=              0.0000   XZ=              0.0000   YZ=              0.0000

 Normal termination of Gaussian 16 at Mon Mar 20 17:59:11 2023.
