 Gaussian 16, Revision C.01,
 Gaussian 16:  ES64L-G16RevC.01  3-Jul-2019

 ----------------------------------------
 #P PBE1PBE/aug-cc-pVDZ scf(maxcycle=200)
 ----------------------------------------

 --------------
 Gaussian input
 --------------
 Symbolic Z-matrix:
 Charge =  0 Multiplicity = 1

                         Standard orientation:
 ---------------------------------------------------------------------
 Center     Atomic      Atomic             Coordinates (Angstroms)
 Number     Number       Type             X           Y           Z
 ---------------------------------------------------------------------
      1          8           0        0.000000    0.000000    0.132693
      2          1           0        0.000000    0.692458   -0.530771
      3          1           0       -0.000000   -0.692458   -0.530771
 ---------------------------------------------------------------------

 SCF Done:  E(RPBE1PBE) =  -76.3560651178     A.U. after    8 cycles

 The electronic state is 1-A1.
 Alpha  occ. eigenvalues --  -19.23496  -1.05758  -0.52792  -0.43451  -0.33559
 Alpha virt. eigenvalues --   -0.01377   0.03388   0.11019   0.13278   0.14722
 Alpha virt. eigenvalues --    0.16651   0.18586   0.25626   0.28416   0.29883
 Alpha virt. eigenvalues --    0.31740   0.46504   0.51294   0.54476   0.61480

 Mulliken charges:
               1
     1  O   -0.213391
     2  H    0.106695
     3  H    0.106695
 Sum of Mulliken charges =  -0.00000

 Dipole moment (field-independent basis, Debye):
    X=             -0.0000    Y=              0.0000    Z=             -2.0328  Tot=              2.0328
 Quadrupole moment (field-independent basis, Debye-Ang):
   XX=             -7.7242   YY=             -4.9754   ZZ=             -6.0761
   XY=              0.0000   XZ=              0.0000   YZ=             -0.0000

 Normal termination of Gaussian 16 at Mon Mar 20 17:34:18 2023.
