 Gaussian 16, Revision C.01,
 Gaussian 16:  ES64L-G16RevC.01  3-Jul-2019

 ----------------------------------------
 #P CCSD(T)/aug-cc-pVTZ scf(maxcycle=200)
 ----------------------------------------

 --------------
 Gaussian input
 --------------
 Symbolic Z-matrix:
 Charge =  0 Multiplicity = 1

                         Standard orientation:
 ---------------------------------------------------------------------
 Center     Atomic      Atomic             Coordinates (Angstroms)
 Number     Number       Type             X           Y           Z
 ---------------------------------------------------------------------
      1          8           0        0.000000    0.128584    0.000000
      2          1           0        0.744360   -0.552599    0.000000
      3          1           0       -0.744360   -0.476073   -0.000000
 ---------------------------------------------------------------------

 SCF Done:  E(RHF) =  -76.0554117410     A.U. after   10 cycles
 E2 =    -0.2710824881D+00 EUMP2 =    -0.76326494229103D+02
 CCSD(T)
 CCSD(T)= -0.76339825294D+02

 The electronic state is 1-A'.
 Alpha  occ. eigenvalues --  -20.57437  -1.34503  -0.69212  -0.59131  -0.51010
 Alpha virt. eigenvalues --    0.02865   0.04797   0.13476   0.16070   0.17523
 Alpha virt. eigenvalues --    0.18462   0.22289   0.24468   0.26746   0.29327
 Alpha virt. eigenvalues --    0.30617   0.36585   0.43081   0.46196   0.59454

 Mulliken charges:
               1
     1  O   -0.474799
     2  H    0.255471
     3  H    0.219329
 Sum of Mulliken charges =   0.00000

 Dipole moment (field-independent basis, Debye):
    X=             -0.0258    Y=             -2.1032    Z=             -0.0000  Tot=              2.1033
 Quadrupole moment (field-independent basis, Debye-Ang):
   XX=             -4.4686   YY=             -6.0592   ZZ=             -7.6091
   XY=             -0.1189   XZ=              0.0000   YZ=             -0.0000

 .331387\CCSD=-76.3308737\CCSD(T)=-76.3398253\RMSD=4.745e-09\PG=CS [SG(
 Normal termination of Gaussian 16 at Wed Feb  8 13:56:28 2023.
