 Gaussian 16, Revision C.01,
 Gaussian 16:  ES64L-G16RevC.01  3-Jul-2019

 ----------------------------------------
 #P PBE1PBE/aug-cc-pVDZ scf(maxcycle=200)
 ----------------------------------------

 --------------
 Gaussian input
 --------------
 Symbolic Z-matrix:
 Charge =  0 Multiplicity = 1

                         Standard orientation:
 ---------------------------------------------------------------------
 Center     Atomic      Atomic             Coordinates (Angstroms)
 Number     Number       Type             X           Y           Z
 ---------------------------------------------------------------------
      1          8           0        0.000000    0.117051    0.000000
      2          1           0        0.727232   -0.428307    0.000000
      3          1           0       -0.727232   -0.508101    0.000000
 ---------------------------------------------------------------------

 SCF Done:  E(RPBE1PBE) =  -76.3566129411     A.U. after    8 cycles

 The electronic state is 1-A'.
 Alpha  occ. eigenvalues --  -19.22721  -1.06171  -0.55796  -0.41741  -0.33571
 Alpha virt. eigenvalues --   -0.01046   0.03394   0.11283   0.13138   0.14679
 Alpha virt. eigenvalues --    0.17018   0.19457   0.24493   0.29471   0.30535
 Alpha virt. eigenvalues --    0.33505   0.45967   0.52235   0.54923   0.64141

 Mulliken charges:
               1
     1  O   -0.164076
     2  H    0.056407
     3  H    0.107669
 Sum of Mulliken charges =   0.00000

 Dipole moment (field-independent basis, Debye):
    X=              0.0254    Y=             -1.8844    Z=              0.0000  Tot=              1.8846
 Quadrupole moment (field-independent basis, Debye-Ang):
   XX=             -4.6057   YY=             -6.3488   ZZ=             -7.6804
   XY=              0.1266   XZ=              0.0000   YZ=              0.0000

 Normal termination of Gaussian 16 at Mon Mar 20 17:33:28 2023.
