 Gaussian 16, Revision C.01,
 Gaussian 16:  ES64L-G16RevC.01  3-Jul-2019

 ----------------------------------------
 #P PBE1PBE/aug-cc-pVDZ scf(maxcycle=200)
 ----------------------------------------

 --------------
 Gaussian input
 --------------
 Symbolic Z-matrix:
 Charge =  0 Multiplicity = 1

                         Standard orientation:
 ---------------------------------------------------------------------
 Center     Atomic      Atomic             Coordinates (Angstroms)
 Number     Number       Type             X           Y           Z
 ---------------------------------------------------------------------
      1          8           0        0.000000   -0.000000    0.144611
      2          1           0       -0.000000    0.703755   -0.578445
      3          1           0       -0.000000   -0.703755   -0.578445
 ---------------------------------------------------------------------

 SCF Done:  E(RPBE1PBE) =  -76.3509249069     A.U. after    8 cycles

 The electronic state is 1-A1.
 Alpha  occ. eigenvalues --  -19.24398  -1.03859  -0.50274  -0.43776  -0.33264
 Alpha virt. eigenvalues --   -0.01878   0.03173   0.10619   0.13389   0.14359
 Alpha virt. eigenvalues --    0.14925   0.18415   0.25560   0.27124   0.29727
 Alpha virt. eigenvalues --    0.30518   0.46047   0.49485   0.52546   0.60898

 Mulliken charges:
               1
     1  O   -0.312741
     2  H    0.156371
     3  H    0.156371
 Sum of Mulliken charges =  -0.00000

 Dipole moment (field-independent basis, Debye):
    X=             -0.0000    Y=              0.0000    Z=             -2.1118  Tot=              2.1118
 Quadrupole moment (field-independent basis, Debye-Ang):
   XX=             -7.8359   YY=             -5.0993   ZZ=             -5.9530
   XY=              0.0000   XZ=              0.0000   YZ=              0.0000

 Normal termination of Gaussian 16 at Wed Mar 29 21:53:43 2023.
