 Gaussian 16, Revision C.01,
 Gaussian 16:  ES64L-G16RevC.01  3-Jul-2019

 ------------------------------------
 #P wB97XD/6-311g** scf(maxcycle=200)
 ------------------------------------

 --------------
 Gaussian input
 --------------
 Symbolic Z-matrix:
 Charge =  0 Multiplicity = 1

                         Standard orientation:
 ---------------------------------------------------------------------
 Center     Atomic      Atomic             Coordinates (Angstroms)
 Number     Number       Type             X           Y           Z
 ---------------------------------------------------------------------
      1          8           0        0.000000    0.120617    0.000000
      2          1           0        0.776856   -0.441678    0.000000
      3          1           0       -0.776856   -0.523258    0.000000
 ---------------------------------------------------------------------

 SCF Done:  E(RwB97XD) =  -76.4209464997     A.U. after   12 cycles

 The electronic state is 1-A'.
 Alpha  occ. eigenvalues --  -19.22995  -1.09267  -0.60058  -0.46066  -0.38444
 Alpha virt. eigenvalues --    0.11305   0.18703   0.44996   0.49851   0.85298
 Alpha virt. eigenvalues --    0.85524   0.94870   1.15828   1.34386   1.34622
 Alpha virt. eigenvalues --    1.54370   1.72217   1.98143   2.12480   2.38224

 Mulliken charges:
               1
     1  O   -0.491153
     2  H    0.245715
     3  H    0.245438
 Sum of Mulliken charges =  -0.00000

 Dipole moment (field-independent basis, Debye):
    X=              0.0432    Y=             -2.1094    Z=              0.0000  Tot=              2.1098
 Quadrupole moment (field-independent basis, Debye-Ang):
   XX=             -4.1786   YY=             -6.0333   ZZ=             -7.2255
   XY=              0.1265   XZ=              0.0000   YZ=              0.0000

 Normal termination of Gaussian 16 at Wed Feb  8 14:41:47 2023.
