 Gaussian 16, Revision C.01,
 Gaussian 16:  ES64L-G16RevC.01  3-Jul-2019

 ----------------------------------------
 #P PBE1PBE/aug-cc-pVDZ scf(maxcycle=200)
 ----------------------------------------

 --------------
 Gaussian input
 --------------
 Symbolic Z-matrix:
 Charge =  0 Multiplicity = 1

                         Standard orientation:
 ---------------------------------------------------------------------
 Center     Atomic      Atomic             Coordinates (Angstroms)
 Number     Number       Type             X           Y           Z
 ---------------------------------------------------------------------
      1          8           0        0.000000    0.145771    0.000000
      2          1           0        0.660689   -0.616837   -0.000000
      3          1           0       -0.660689   -0.549334   -0.000000
 ---------------------------------------------------------------------

 SCF Done:  E(RPBE1PBE) =  -76.3481888307     A.U. after    9 cycles

 The electronic state is 1-A'.
 Alpha  occ. eigenvalues --  -19.24138  -1.05358  -0.50229  -0.44815  -0.33538
 Alpha virt. eigenvalues --   -0.01779   0.03350   0.10601   0.13372   0.14438
 Alpha virt. eigenvalues --    0.15948   0.18435   0.26217   0.27254   0.29948
 Alpha virt. eigenvalues --    0.30649   0.46804   0.49708   0.54227   0.60090

 Mulliken charges:
               1
     1  O   -0.267551
     2  H    0.154527
     3  H    0.113024
 Sum of Mulliken charges =   0.00000

 Dipole moment (field-independent basis, Debye):
    X=             -0.0327    Y=             -2.1472    Z=             -0.0000  Tot=              2.1474
 Quadrupole moment (field-independent basis, Debye-Ang):
   XX=             -5.2999   YY=             -5.8318   ZZ=             -7.7697
   XY=             -0.0815   XZ=              0.0000   YZ=              0.0000

 Normal termination of Gaussian 16 at Mon Mar 20 17:35:25 2023.
