 Gaussian 16, Revision C.01,
 Gaussian 16:  ES64L-G16RevC.01  3-Jul-2019

 ----------------------------------------
 #P PBE1PBE/aug-cc-pVDZ scf(maxcycle=200)
 ----------------------------------------

 --------------
 Gaussian input
 --------------
 Symbolic Z-matrix:
 Charge =  0 Multiplicity = 1

                         Standard orientation:
 ---------------------------------------------------------------------
 Center     Atomic      Atomic             Coordinates (Angstroms)
 Number     Number       Type             X           Y           Z
 ---------------------------------------------------------------------
      1          8           0       -0.000000    0.000000    0.134625
      2          1           0       -0.000000    0.610888   -0.538500
      3          1           0       -0.000000   -0.610888   -0.538500
 ---------------------------------------------------------------------

 SCF Done:  E(RPBE1PBE) =  -76.3400733420     A.U. after    8 cycles

 The electronic state is 1-A1.
 Alpha  occ. eigenvalues --  -19.22883  -1.09140  -0.52717  -0.45536  -0.34145
 Alpha virt. eigenvalues --   -0.01200   0.03666   0.10988   0.13249   0.15154
 Alpha virt. eigenvalues --    0.17889   0.19086   0.27266   0.28391   0.30787
 Alpha virt. eigenvalues --    0.31536   0.48003   0.52123   0.55753   0.61921

 Mulliken charges:
               1
     1  O   -0.120283
     2  H    0.060141
     3  H    0.060141
 Sum of Mulliken charges =  -0.00000

 Dipole moment (field-independent basis, Debye):
    X=             -0.0000    Y=             -0.0000    Z=             -2.0999  Tot=              2.0999
 Quadrupole moment (field-independent basis, Debye-Ang):
   XX=             -7.5875   YY=             -5.3371   ZZ=             -5.8457
   XY=              0.0000   XZ=              0.0000   YZ=              0.0000

 Normal termination of Gaussian 16 at Mon Mar 20 17:57:05 2023.
