 Gaussian 16, Revision C.01,
 Gaussian 16:  ES64L-G16RevC.01  3-Jul-2019

 ----------------------------------------
 #P CCSD(T)/aug-cc-pVTZ scf(maxcycle=200)
 ----------------------------------------

 --------------
 Gaussian input
 --------------
 Symbolic Z-matrix:
 Charge =  0 Multiplicity = 1

                         Standard orientation:
 ---------------------------------------------------------------------
 Center     Atomic      Atomic             Coordinates (Angstroms)
 Number     Number       Type             X           Y           Z
 ---------------------------------------------------------------------
      1          8           0        0.000000    0.000000    0.139611
      2          1           0        0.000000    0.728561   -0.558444
      3          1           0       -0.000000   -0.728561   -0.558444
 ---------------------------------------------------------------------

 SCF Done:  E(RHF) =  -76.0489117344     A.U. after   10 cycles
 E2 =    -0.2739845459D+00 EUMP2 =    -0.76322896280222D+02
 CCSD(T)
 CCSD(T)= -0.76336141916D+02

 The electronic state is 1-A1.
 Alpha  occ. eigenvalues --  -20.58123  -1.33677  -0.66767  -0.59827  -0.51005
 Alpha virt. eigenvalues --    0.02785   0.04826   0.13341   0.16265   0.17557
 Alpha virt. eigenvalues --    0.18592   0.21811   0.24444   0.26977   0.28630
 Alpha virt. eigenvalues --    0.30297   0.36577   0.42591   0.45312   0.59056

 Mulliken charges:
               1
     1  O   -0.507463
     2  H    0.253731
     3  H    0.253731
 Sum of Mulliken charges =   0.00000

 Dipole moment (field-independent basis, Debye):
    X=             -0.0000    Y=              0.0000    Z=             -2.2179  Tot=              2.2179
 Quadrupole moment (field-independent basis, Debye-Ang):
   XX=             -7.6569   YY=             -4.7099   ZZ=             -5.8715
   XY=              0.0000   XZ=              0.0000   YZ=             -0.0000

 .3274047\CCSD=-76.3268459\CCSD(T)=-76.3361419\RMSD=5.788e-09\PG=C02V [
 Normal termination of Gaussian 16 at Wed Feb  8 13:57:20 2023.
