 Gaussian 16, Revision C.01,
 Gaussian 16:  ES64L-G16RevC.01  3-Jul-2019

 ----------------------------------------
 #P CCSD(T)/aug-cc-pVTZ scf(maxcycle=200)
 ----------------------------------------

 --------------
 Gaussian input
 --------------
 Symbolic Z-matrix:
 Charge =  0 Multiplicity = 1

                         Standard orientation:
 ---------------------------------------------------------------------
 Center     Atomic      Atomic             Coordinates (Angstroms)
 Number     Number       Type             X           Y           Z
 ---------------------------------------------------------------------
      1          8           0       -0.000000    0.000000    0.131794
      2          1           0       -0.000000    0.764096   -0.527174
      3          1           0       -0.000000   -0.764096   -0.527174
 ---------------------------------------------------------------------

 SCF Done:  E(RHF) =  -76.0517079170     A.U. after   10 cycles
 E2 =    -0.2731816905D+00 EUMP2 =    -0.76324889607492D+02
 CCSD(T)
 CCSD(T)= -0.76338234198D+02

 The electronic state is 1-A1.
 Alpha  occ. eigenvalues --  -20.57877  -1.33253  -0.67940  -0.58660  -0.50829
 Alpha virt. eigenvalues --    0.02832   0.04786   0.13459   0.16186   0.17460
 Alpha virt. eigenvalues --    0.18435   0.22030   0.24361   0.26740   0.29207
 Alpha virt. eigenvalues --    0.30539   0.36472   0.42734   0.45471   0.59361

 Mulliken charges:
               1
     1  O   -0.507136
     2  H    0.253568
     3  H    0.253568
 Sum of Mulliken charges =   0.00000

 Dipole moment (field-independent basis, Debye):
    X=             -0.0000    Y=             -0.0000    Z=             -2.1241  Tot=              2.1241
 Quadrupole moment (field-independent basis, Debye-Ang):
   XX=             -7.6650   YY=             -4.4171   ZZ=             -6.0712
   XY=              0.0000   XZ=              0.0000   YZ=              0.0000

 3295609\CCSD=-76.329016\CCSD(T)=-76.3382342\RMSD=6.144e-09\PG=C02V [C2
 Normal termination of Gaussian 16 at Wed Feb  8 13:57:32 2023.
