 Gaussian 16, Revision C.01,
 Gaussian 16:  ES64L-G16RevC.01  3-Jul-2019

 ----------------------------------------
 #P PBE1PBE/aug-cc-pVDZ scf(maxcycle=200)
 ----------------------------------------

 --------------
 Gaussian input
 --------------
 Symbolic Z-matrix:
 Charge =  0 Multiplicity = 1

                         Standard orientation:
 ---------------------------------------------------------------------
 Center     Atomic      Atomic             Coordinates (Angstroms)
 Number     Number       Type             X           Y           Z
 ---------------------------------------------------------------------
      1          8           0        0.000000    0.000000    0.111364
      2          1           0        0.000000    0.718494   -0.445455
      3          1           0       -0.000000   -0.718494   -0.445455
 ---------------------------------------------------------------------

 SCF Done:  E(RPBE1PBE) =  -76.3538194286     A.U. after    8 cycles

 The electronic state is 1-A1.
 Alpha  occ. eigenvalues --  -19.22242  -1.07173  -0.57237  -0.41607  -0.33756
 Alpha virt. eigenvalues --   -0.00832   0.03473   0.11392   0.13062   0.14974
 Alpha virt. eigenvalues --    0.17175   0.20205   0.24544   0.29614   0.31288
 Alpha virt. eigenvalues --    0.34136   0.46185   0.53352   0.55094   0.65483

 Mulliken charges:
               1
     1  O   -0.110340
     2  H    0.055170
     3  H    0.055170
 Sum of Mulliken charges =   0.00000

 Dipole moment (field-independent basis, Debye):
    X=             -0.0000    Y=              0.0000    Z=             -1.8419  Tot=              1.8419
 Quadrupole moment (field-independent basis, Debye-Ang):
   XX=             -7.6210   YY=             -4.5698   ZZ=             -6.3937
   XY=              0.0000   XZ=              0.0000   YZ=              0.0000

 Normal termination of Gaussian 16 at Mon Mar 20 17:57:05 2023.
