 Gaussian 16, Revision C.01,
 Gaussian 16:  ES64L-G16RevC.01  3-Jul-2019

 ------------------------------------
 #P wB97XD/6-311g** scf(maxcycle=200)
 ------------------------------------

 --------------
 Gaussian input
 --------------
 Symbolic Z-matrix:
 Charge =  0 Multiplicity = 1

                         Standard orientation:
 ---------------------------------------------------------------------
 Center     Atomic      Atomic             Coordinates (Angstroms)
 Number     Number       Type             X           Y           Z
 ---------------------------------------------------------------------
      1          8           0        0.000000    0.000000    0.123615
      2          1           0        0.000000    0.797536   -0.494460
      3          1           0       -0.000000   -0.797536   -0.494460
 ---------------------------------------------------------------------

 SCF Done:  E(RwB97XD) =  -76.4186042177     A.U. after   12 cycles

 The electronic state is 1-A1.
 Alpha  occ. eigenvalues --  -19.23403  -1.08223  -0.59143  -0.45867  -0.38259
 Alpha virt. eigenvalues --    0.10800   0.18087   0.44269   0.47995   0.85440
 Alpha virt. eigenvalues --    0.85537   0.94535   1.16128   1.34191   1.35396
 Alpha virt. eigenvalues --    1.53921   1.70110   1.95626   2.08752   2.38381

 Mulliken charges:
               1
     1  O   -0.494719
     2  H    0.247360
     3  H    0.247360
 Sum of Mulliken charges =   0.00000

 Dipole moment (field-independent basis, Debye):
    X=             -0.0000    Y=              0.0000    Z=             -2.1207  Tot=              2.1207
 Quadrupole moment (field-independent basis, Debye-Ang):
   XX=             -7.2802   YY=             -4.1272   ZZ=             -6.0486
   XY=              0.0000   XZ=              0.0000   YZ=             -0.0000

 Normal termination of Gaussian 16 at Wed Feb  8 14:43:00 2023.
