 Gaussian 16, Revision C.01,
 Gaussian 16:  ES64L-G16RevC.01  3-Jul-2019

 ----------------------------------------
 #P PBE1PBE/aug-cc-pVDZ scf(maxcycle=200)
 ----------------------------------------

 --------------
 Gaussian input
 --------------
 Symbolic Z-matrix:
 Charge =  0 Multiplicity = 1

                         Standard orientation:
 ---------------------------------------------------------------------
 Center     Atomic      Atomic             Coordinates (Angstroms)
 Number     Number       Type             X           Y           Z
 ---------------------------------------------------------------------
      1          8           0        0.000000    0.000000    0.101069
      2          1           0       -0.000000    0.755585   -0.404274
      3          1           0       -0.000000   -0.755585   -0.404274
 ---------------------------------------------------------------------

 SCF Done:  E(RPBE1PBE) =  -76.3531964993     A.U. after    8 cycles

 The electronic state is 1-A1.
 Alpha  occ. eigenvalues --  -19.21952  -1.06562  -0.58765  -0.40130  -0.33614
 Alpha virt. eigenvalues --   -0.00745   0.03397   0.11496   0.12979   0.14747
 Alpha virt. eigenvalues --    0.16903   0.20845   0.23431   0.29181   0.32813
 Alpha virt. eigenvalues --    0.35336   0.45347   0.53617   0.54756   0.67565

 Mulliken charges:
               1
     1  O   -0.126522
     2  H    0.063261
     3  H    0.063261
 Sum of Mulliken charges =  -0.00000

 Dipole moment (field-independent basis, Debye):
    X=             -0.0000    Y=             -0.0000    Z=             -1.7213  Tot=              1.7213
 Quadrupole moment (field-independent basis, Debye-Ang):
   XX=             -7.6374   YY=             -4.2714   ZZ=             -6.6132
   XY=              0.0000   XZ=              0.0000   YZ=              0.0000

 Normal termination of Gaussian 16 at Mon Mar 20 17:33:07 2023.
