 Gaussian 16, Revision C.01,
 Gaussian 16:  ES64L-G16RevC.01  3-Jul-2019

 -----------------------------------
 #P HF/aug-cc-pVDZ scf(maxcycle=200)
 -----------------------------------

 --------------
 Gaussian input
 --------------
 Symbolic Z-matrix:
 Charge =  0 Multiplicity = 1

                         Standard orientation:
 ---------------------------------------------------------------------
 Center     Atomic      Atomic             Coordinates (Angstroms)
 Number     Number       Type             X           Y           Z
 ---------------------------------------------------------------------
      1          8           0        0.000000    0.000000    0.092327
      2          1           0       -0.000000    0.840580   -0.369308
      3          1           0       -0.000000   -0.840580   -0.369308
 ---------------------------------------------------------------------

 SCF Done:  E(RHF) =  -76.0345304224     A.U. after   10 cycles

 The electronic state is 1-A1.
 Alpha  occ. eigenvalues --  -20.56837  -1.34377  -0.74900  -0.55099  -0.50369
 Alpha virt. eigenvalues --    0.03656   0.05636   0.17624   0.19486   0.21744
 Alpha virt. eigenvalues --    0.22549   0.30379   0.30655   0.37612   0.44133
 Alpha virt. eigenvalues --    0.46219   0.51939   0.65144   0.65269   0.86266

 Mulliken charges:
               1
     1  O   -0.358555
     2  H    0.179278
     3  H    0.179278
 Sum of Mulliken charges =  -0.00000

 Dipole moment (field-independent basis, Debye):
    X=             -0.0000    Y=             -0.0000    Z=             -1.6761  Tot=              1.6761
 Quadrupole moment (field-independent basis, Debye-Ang):
   XX=             -7.6350   YY=             -3.5042   ZZ=             -6.8011
   XY=              0.0000   XZ=              0.0000   YZ=             -0.0000

 Normal termination of Gaussian 16 at Mon Feb 20 10:28:21 2023.
