 Gaussian 16, Revision C.01,
 Gaussian 16:  ES64L-G16RevC.01  3-Jul-2019

 ----------------------------------------
 #P CCSD(T)/aug-cc-pVTZ scf(maxcycle=200)
 ----------------------------------------

 --------------
 Gaussian input
 --------------
 Symbolic Z-matrix:
 Charge =  0 Multiplicity = 1

                         Standard orientation:
 ---------------------------------------------------------------------
 Center     Atomic      Atomic             Coordinates (Angstroms)
 Number     Number       Type             X           Y           Z
 ---------------------------------------------------------------------
      1          8           0        0.000000    0.126913    0.000000
      2          1           0        0.684803   -0.470855    0.000000
      3          1           0       -0.684803   -0.544448    0.000000
 ---------------------------------------------------------------------

 SCF Done:  E(RHF) =  -76.0555098669     A.U. after   10 cycles
 E2 =    -0.2674777282D+00 EUMP2 =    -0.76322987595046D+02
 CCSD(T)
 CCSD(T)= -0.76336240915D+02

 The electronic state is 1-A'.
 Alpha  occ. eigenvalues --  -20.56676  -1.37485  -0.70923  -0.60937  -0.51514
 Alpha virt. eigenvalues --    0.02897   0.04841   0.13429   0.15898   0.17726
 Alpha virt. eigenvalues --    0.18544   0.22669   0.24766   0.26913   0.29203
 Alpha virt. eigenvalues --    0.30574   0.36948   0.43955   0.47220   0.59497

 Mulliken charges:
               1
     1  O   -0.403414
     2  H    0.176222
     3  H    0.227192
 Sum of Mulliken charges =  -0.00000

 Dipole moment (field-independent basis, Debye):
    X=              0.0279    Y=             -2.1187    Z=              0.0000  Tot=              2.1189
 Quadrupole moment (field-independent basis, Debye-Ang):
   XX=             -4.7269   YY=             -5.9231   ZZ=             -7.4901
   XY=              0.1034   XZ=              0.0000   YZ=              0.0000

 .3282227\CCSD=-76.3277599\CCSD(T)=-76.3362409\RMSD=2.867e-09\PG=CS [SG
 Normal termination of Gaussian 16 at Wed Feb  8 13:49:31 2023.
