 Gaussian 16, Revision C.01,
 Gaussian 16:  ES64L-G16RevC.01  3-Jul-2019

 ----------------------------------------
 #P CCSD(T)/aug-cc-pVTZ scf(maxcycle=200)
 ----------------------------------------

 --------------
 Gaussian input
 --------------
 Symbolic Z-matrix:
 Charge =  0 Multiplicity = 1

                         Standard orientation:
 ---------------------------------------------------------------------
 Center     Atomic      Atomic             Coordinates (Angstroms)
 Number     Number       Type             X           Y           Z
 ---------------------------------------------------------------------
      1          8           0       -0.000000    0.000000    0.126380
      2          1           0       -0.000000    0.786628   -0.505520
      3          1           0       -0.000000   -0.786628   -0.505520
 ---------------------------------------------------------------------

 SCF Done:  E(RHF) =  -76.0524560589     A.U. after   10 cycles
 E2 =    -0.2727506903D+00 EUMP2 =    -0.76325206749201D+02
 CCSD(T)
 CCSD(T)= -0.76338592745D+02

 The electronic state is 1-A1.
 Alpha  occ. eigenvalues --  -20.57698  -1.32985  -0.68677  -0.57892  -0.50705
 Alpha virt. eigenvalues --    0.02860   0.04759   0.13527   0.16132   0.17372
 Alpha virt. eigenvalues --    0.18333   0.22182   0.24310   0.26579   0.29609
 Alpha virt. eigenvalues --    0.30744   0.36427   0.42751   0.45562   0.59588

 Mulliken charges:
               1
     1  O   -0.508253
     2  H    0.254127
     3  H    0.254127
 Sum of Mulliken charges =   0.00000

 Dipole moment (field-independent basis, Debye):
    X=             -0.0000    Y=             -0.0000    Z=             -2.0585  Tot=              2.0585
 Quadrupole moment (field-independent basis, Debye-Ang):
   XX=             -7.6715   YY=             -4.2222   ZZ=             -6.2037
   XY=              0.0000   XZ=              0.0000   YZ=             -0.0000

 .3299527\CCSD=-76.329414\CCSD(T)=-76.3385927\RMSD=6.215e-09\PG=C02V [C
 Normal termination of Gaussian 16 at Wed Feb  8 13:57:40 2023.
