 Gaussian 16, Revision C.01,
 Gaussian 16:  ES64L-G16RevC.01  3-Jul-2019

 ------------------------------
 #P HF/6-31g* scf(maxcycle=200)
 ------------------------------

 --------------
 Gaussian input
 --------------
 Symbolic Z-matrix:
 Charge =  0 Multiplicity = 1

                         Standard orientation:
 ---------------------------------------------------------------------
 Center     Atomic      Atomic             Coordinates (Angstroms)
 Number     Number       Type             X           Y           Z
 ---------------------------------------------------------------------
      1          8           0        0.000000    0.138368    0.000000
      2          1           0        0.627054   -0.519723    0.000000
      3          1           0       -0.627054   -0.587224    0.000000
 ---------------------------------------------------------------------

 SCF Done:  E(RHF) =  -75.9938908936     A.U. after   10 cycles

 The electronic state is 1-A'.
 Alpha  occ. eigenvalues --  -20.56493  -1.37564  -0.67551  -0.61761  -0.50680
 Alpha virt. eigenvalues --    0.20650   0.30986   0.96944   1.12427   1.16294
 Alpha virt. eigenvalues --    1.25005   1.37880   1.49960   1.98127   2.03821
 Alpha virt. eigenvalues --    2.04703   2.73244   2.89594   3.93777

 Mulliken charges:
               1
     1  O   -0.834078
     2  H    0.420605
     3  H    0.413473
 Sum of Mulliken charges =   0.00000

 Dipole moment (field-independent basis, Debye):
    X=              0.0504    Y=             -2.5228    Z=              0.0000  Tot=              2.5233
 Quadrupole moment (field-independent basis, Debye-Ang):
   XX=             -5.0786   YY=             -5.4217   ZZ=             -7.1842
   XY=              0.0685   XZ=              0.0000   YZ=              0.0000

 Normal termination of Gaussian 16 at Wed Feb  8 15:05:02 2023.
