 Gaussian 16, Revision C.01,
 Gaussian 16:  ES64L-G16RevC.01  3-Jul-2019

 ---------------------------------
 #P B3LYP/6-31g* scf(maxcycle=200)
 ---------------------------------

 --------------
 Gaussian input
 --------------
 Symbolic Z-matrix:
 Charge =  0 Multiplicity = 1

                         Standard orientation:
 ---------------------------------------------------------------------
 Center     Atomic      Atomic             Coordinates (Angstroms)
 Number     Number       Type             X           Y           Z
 ---------------------------------------------------------------------
      1          8           0        0.000000    0.000000    0.123615
      2          1           0        0.000000    0.797536   -0.494460
      3          1           0       -0.000000   -0.797536   -0.494460
 ---------------------------------------------------------------------

 SCF Done:  E(RB3LYP) =  -76.4062014086     A.U. after   10 cycles

 The electronic state is 1-A1.
 Alpha  occ. eigenvalues --  -19.14456  -0.98079  -0.50384  -0.36805  -0.28826
 Alpha virt. eigenvalues --    0.05113   0.13355   0.75845   0.81864   0.89121
 Alpha virt. eigenvalues --    0.89352   1.05895   1.18394   1.74022   1.75444
 Alpha virt. eigenvalues --    1.78669   2.23407   2.50934   3.53326

 Mulliken charges:
               1
     1  O   -0.763613
     2  H    0.381807
     3  H    0.381807
 Sum of Mulliken charges =  -0.00000

 Dipole moment (field-independent basis, Debye):
    X=             -0.0000    Y=              0.0000    Z=             -2.0920  Tot=              2.0920
 Quadrupole moment (field-independent basis, Debye-Ang):
   XX=             -7.2815   YY=             -4.1947   ZZ=             -6.0250
   XY=              0.0000   XZ=              0.0000   YZ=             -0.0000

 Normal termination of Gaussian 16 at Wed Feb  8 14:52:38 2023.
