 Gaussian 16, Revision C.01,
 Gaussian 16:  ES64L-G16RevC.01  3-Jul-2019

 ----------------------------------------
 #P CCSD(T)/aug-cc-pVTZ scf(maxcycle=200)
 ----------------------------------------

 --------------
 Gaussian input
 --------------
 Symbolic Z-matrix:
 Charge =  0 Multiplicity = 1

                         Standard orientation:
 ---------------------------------------------------------------------
 Center     Atomic      Atomic             Coordinates (Angstroms)
 Number     Number       Type             X           Y           Z
 ---------------------------------------------------------------------
      1          8           0       -0.000000   -0.000000    0.106265
      2          1           0       -0.000000    0.857774   -0.425059
      3          1           0       -0.000000   -0.857774   -0.425059
 ---------------------------------------------------------------------

 SCF Done:  E(RHF) =  -76.0487585223     A.U. after   10 cycles
 E2 =    -0.2719088337D+00 EUMP2 =    -0.76320667356069D+02
 CCSD(T)
 CCSD(T)= -0.76334047703D+02

 The electronic state is 1-A1.
 Alpha  occ. eigenvalues --  -20.56971  -1.32102  -0.70941  -0.55276  -0.50225
 Alpha virt. eigenvalues --    0.02932   0.04671   0.13702   0.15929   0.16925
 Alpha virt. eigenvalues --    0.17999   0.22728   0.24095   0.26029   0.31137
 Alpha virt. eigenvalues --    0.31777   0.36324   0.42394   0.45752   0.60536

 Mulliken charges:
               1
     1  O   -0.520235
     2  H    0.260118
     3  H    0.260118
 Sum of Mulliken charges =   0.00000

 Dipole moment (field-independent basis, Debye):
    X=             -0.0000    Y=             -0.0000    Z=             -1.8071  Tot=              1.8071
 Quadrupole moment (field-independent basis, Debye-Ang):
   XX=             -7.7017   YY=             -3.5502   ZZ=             -6.6556
   XY=              0.0000   XZ=              0.0000   YZ=             -0.0000

 .3254672\CCSD=-76.3249344\CCSD(T)=-76.3340477\RMSD=5.711e-09\PG=C02V [
 Normal termination of Gaussian 16 at Wed Feb  8 13:59:11 2023.
