 Gaussian 16, Revision C.01,
 Gaussian 16:  ES64L-G16RevC.01  3-Jul-2019

 ------------------------------
 #P HF/6-31g* scf(maxcycle=200)
 ------------------------------

 --------------
 Gaussian input
 --------------
 Symbolic Z-matrix:
 Charge =  0 Multiplicity = 1

                         Standard orientation:
 ---------------------------------------------------------------------
 Center     Atomic      Atomic             Coordinates (Angstroms)
 Number     Number       Type             X           Y           Z
 ---------------------------------------------------------------------
      1          8           0        0.000000    0.000000    0.097141
      2          1           0       -0.000000    0.884405   -0.388563
      3          1           0       -0.000000   -0.884405   -0.388563
 ---------------------------------------------------------------------

 SCF Done:  E(RHF) =  -75.9944504365     A.U. after   10 cycles

 The electronic state is 1-A1.
 Alpha  occ. eigenvalues --  -20.55724  -1.30275  -0.70437  -0.52597  -0.48561
 Alpha virt. eigenvalues --    0.19504   0.29351   1.00165   1.09071   1.16287
 Alpha virt. eigenvalues --    1.17452   1.37197   1.39626   2.03545   2.07958
 Alpha virt. eigenvalues --    2.09654   2.63066   2.79414   3.96981

 Mulliken charges:
               1
     1  O   -0.902131
     2  H    0.451065
     3  H    0.451065
 Sum of Mulliken charges =  -0.00000

 Dipole moment (field-independent basis, Debye):
    X=             -0.0000    Y=              0.0000    Z=             -1.9189  Tot=              1.9189
 Quadrupole moment (field-independent basis, Debye-Ang):
   XX=             -7.3368   YY=             -3.1301   ZZ=             -6.4871
   XY=              0.0000   XZ=              0.0000   YZ=             -0.0000

 Normal termination of Gaussian 16 at Wed Feb  8 15:07:45 2023.
