 Gaussian 16, Revision C.01,
 Gaussian 16:  ES64L-G16RevC.01  3-Jul-2019

 ----------------------------------------
 #P PBE1PBE/aug-cc-pVDZ scf(maxcycle=200)
 ----------------------------------------

 --------------
 Gaussian input
 --------------
 Symbolic Z-matrix:
 Charge =  0 Multiplicity = 1

                         Standard orientation:
 ---------------------------------------------------------------------
 Center     Atomic      Atomic             Coordinates (Angstroms)
 Number     Number       Type             X           Y           Z
 ---------------------------------------------------------------------
      1          8           0        0.000000    0.120617    0.000000
      2          1           0        0.776856   -0.441678    0.000000
      3          1           0       -0.776856   -0.523258    0.000000
 ---------------------------------------------------------------------

 SCF Done:  E(RPBE1PBE) =  -76.3579244339     A.U. after    9 cycles

 The electronic state is 1-A'.
 Alpha  occ. eigenvalues --  -19.23426  -1.03793  -0.54205  -0.40895  -0.33112
 Alpha virt. eigenvalues --   -0.01427   0.03145   0.11089   0.13232   0.14027
 Alpha virt. eigenvalues --    0.16075   0.18827   0.23537   0.28897   0.30127
 Alpha virt. eigenvalues --    0.33067   0.44900   0.50620   0.53498   0.63623

 Mulliken charges:
               1
     1  O   -0.275766
     2  H    0.112201
     3  H    0.163566
 Sum of Mulliken charges =   0.00000

 Dipole moment (field-independent basis, Debye):
    X=              0.0235    Y=             -1.8796    Z=              0.0000  Tot=              1.8798
 Quadrupole moment (field-independent basis, Debye-Ang):
   XX=             -4.4243   YY=             -6.4387   ZZ=             -7.8084
   XY=              0.1369   XZ=              0.0000   YZ=              0.0000

 Normal termination of Gaussian 16 at Wed Mar 29 21:52:33 2023.
