 Gaussian 16, Revision C.01,
 Gaussian 16:  ES64L-G16RevC.01  3-Jul-2019

 ------------------------------------
 #P wB97XD/6-311g** scf(maxcycle=200)
 ------------------------------------

 --------------
 Gaussian input
 --------------
 Symbolic Z-matrix:
 Charge =  0 Multiplicity = 1

                         Standard orientation:
 ---------------------------------------------------------------------
 Center     Atomic      Atomic             Coordinates (Angstroms)
 Number     Number       Type             X           Y           Z
 ---------------------------------------------------------------------
      1          8           0        0.000000    0.142189    0.000000
      2          1           0        0.642020   -0.636201   -0.000000
      3          1           0       -0.642020   -0.501311    0.000000
 ---------------------------------------------------------------------

 SCF Done:  E(RwB97XD) =  -76.4079754858     A.U. after   12 cycles

 The electronic state is 1-A'.
 Alpha  occ. eigenvalues --  -19.23481  -1.12325  -0.57006  -0.50399  -0.39224
 Alpha virt. eigenvalues --    0.10930   0.19378   0.43498   0.54210   0.85173
 Alpha virt. eigenvalues --    0.86000   0.96097   1.12166   1.18739   1.41635
 Alpha virt. eigenvalues --    1.44152   1.87824   1.95142   2.19097   2.44337

 Mulliken charges:
               1
     1  O   -0.423117
     2  H    0.209283
     3  H    0.213834
 Sum of Mulliken charges =  -0.00000

 Dipole moment (field-independent basis, Debye):
    X=             -0.0962    Y=             -2.3198    Z=             -0.0000  Tot=              2.3218
 Quadrupole moment (field-independent basis, Debye-Ang):
   XX=             -5.0944   YY=             -5.4792   ZZ=             -7.1540
   XY=             -0.1387   XZ=              0.0000   YZ=             -0.0000

 Normal termination of Gaussian 16 at Wed Feb  8 14:42:02 2023.
