 Gaussian 16, Revision C.01,
 Gaussian 16:  ES64L-G16RevC.01  3-Jul-2019

 -----------------------------------
 #P HF/aug-cc-pVDZ scf(maxcycle=200)
 -----------------------------------

 --------------
 Gaussian input
 --------------
 Symbolic Z-matrix:
 Charge =  0 Multiplicity = 1

                         Standard orientation:
 ---------------------------------------------------------------------
 Center     Atomic      Atomic             Coordinates (Angstroms)
 Number     Number       Type             X           Y           Z
 ---------------------------------------------------------------------
      1          8           0       -0.000000   -0.000000    0.127779
      2          1           0       -0.000000    0.715190   -0.511114
      3          1           0       -0.000000   -0.715190   -0.511114
 ---------------------------------------------------------------------

 SCF Done:  E(RHF) =  -76.0391314716     A.U. after   10 cycles

 The electronic state is 1-A1.
 Alpha  occ. eigenvalues --  -20.58098  -1.36184  -0.70168  -0.60143  -0.51155
 Alpha virt. eigenvalues --    0.03466   0.05863   0.17295   0.19772   0.22324
 Alpha virt. eigenvalues --    0.23389   0.28632   0.34402   0.38881   0.39034
 Alpha virt. eigenvalues --    0.42202   0.54678   0.64532   0.65973   0.79201

 Mulliken charges:
               1
     1  O   -0.290807
     2  H    0.145404
     3  H    0.145404
 Sum of Mulliken charges =  -0.00000

 Dipole moment (field-independent basis, Debye):
    X=             -0.0000    Y=             -0.0000    Z=             -2.1265  Tot=              2.1265
 Quadrupole moment (field-independent basis, Debye-Ang):
   XX=             -7.5788   YY=             -4.6312   ZZ=             -6.0185
   XY=              0.0000   XZ=              0.0000   YZ=              0.0000

 Normal termination of Gaussian 16 at Mon Feb 20 10:28:06 2023.
