 Gaussian 16, Revision C.01,
 Gaussian 16:  ES64L-G16RevC.01  3-Jul-2019

 ---------------------------------
 #P B3LYP/6-31g* scf(maxcycle=200)
 ---------------------------------

 --------------
 Gaussian input
 --------------
 Symbolic Z-matrix:
 Charge =  0 Multiplicity = 1

                         Standard orientation:
 ---------------------------------------------------------------------
 Center     Atomic      Atomic             Coordinates (Angstroms)
 Number     Number       Type             X           Y           Z
 ---------------------------------------------------------------------
      1          8           0       -0.000000    0.000000    0.134625
      2          1           0       -0.000000    0.610888   -0.538500
      3          1           0       -0.000000   -0.610888   -0.538500
 ---------------------------------------------------------------------

 SCF Done:  E(RB3LYP) =  -76.3874498635     A.U. after    9 cycles

 The electronic state is 1-A1.
 Alpha  occ. eigenvalues --  -19.13587  -1.04862  -0.49895  -0.41659  -0.30167
 Alpha virt. eigenvalues --    0.06807   0.16771   0.74647   0.87602   0.88647
 Alpha virt. eigenvalues --    0.98545   1.07547   1.25764   1.68133   1.74534
 Alpha virt. eigenvalues --    1.75098   2.45029   2.57513   3.53917

 Mulliken charges:
               1
     1  O   -0.752079
     2  H    0.376040
     3  H    0.376040
 Sum of Mulliken charges =   0.00000

 Dipole moment (field-independent basis, Debye):
    X=             -0.0000    Y=             -0.0000    Z=             -2.3383  Tot=              2.3383
 Quadrupole moment (field-independent basis, Debye-Ang):
   XX=             -7.0933   YY=             -5.1609   ZZ=             -5.4925
   XY=              0.0000   XZ=              0.0000   YZ=              0.0000

 Normal termination of Gaussian 16 at Wed Feb  8 14:48:16 2023.
