 Gaussian 16, Revision C.01,
 Gaussian 16:  ES64L-G16RevC.01  3-Jul-2019

 ----------------------------------------
 #P CCSD(T)/aug-cc-pVTZ scf(maxcycle=200)
 ----------------------------------------

 --------------
 Gaussian input
 --------------
 Symbolic Z-matrix:
 Charge =  0 Multiplicity = 1

                         Standard orientation:
 ---------------------------------------------------------------------
 Center     Atomic      Atomic             Coordinates (Angstroms)
 Number     Number       Type             X           Y           Z
 ---------------------------------------------------------------------
      1          8           0        0.000000    0.000000    0.112187
      2          1           0        0.000000    0.838708   -0.448749
      3          1           0       -0.000000   -0.838708   -0.448749
 ---------------------------------------------------------------------

 SCF Done:  E(RHF) =  -76.0507404012     A.U. after   10 cycles
 E2 =    -0.2720473926D+00 EUMP2 =    -0.76322787793891D+02
 CCSD(T)
 CCSD(T)= -0.76336192728D+02

 The electronic state is 1-A1.
 Alpha  occ. eigenvalues --  -20.57194  -1.32348  -0.70347  -0.56011  -0.50370
 Alpha virt. eigenvalues --    0.02915   0.04695   0.13661   0.15988   0.17074
 Alpha virt. eigenvalues --    0.18090   0.22571   0.24168   0.26180   0.30680
 Alpha virt. eigenvalues --    0.31431   0.36362   0.42553   0.45720   0.60232

 Mulliken charges:
               1
     1  O   -0.515321
     2  H    0.257660
     3  H    0.257660
 Sum of Mulliken charges =   0.00000

 Dipole moment (field-independent basis, Debye):
    X=             -0.0000    Y=              0.0000    Z=             -1.8828  Tot=              1.8828
 Quadrupole moment (field-independent basis, Debye-Ang):
   XX=             -7.6919   YY=             -3.7398   ZZ=             -6.5291
   XY=              0.0000   XZ=              0.0000   YZ=             -0.0000

 .3276036\CCSD=-76.3270715\CCSD(T)=-76.3361927\RMSD=5.960e-09\PG=C02V [
 Normal termination of Gaussian 16 at Wed Feb  8 13:58:02 2023.
