 Gaussian 16, Revision C.01,
 Gaussian 16:  ES64L-G16RevC.01  3-Jul-2019

 -----------------------------------
 #P HF/aug-cc-pVDZ scf(maxcycle=200)
 -----------------------------------

 --------------
 Gaussian input
 --------------
 Symbolic Z-matrix:
 Charge =  0 Multiplicity = 1

                         Standard orientation:
 ---------------------------------------------------------------------
 Center     Atomic      Atomic             Coordinates (Angstroms)
 Number     Number       Type             X           Y           Z
 ---------------------------------------------------------------------
      1          8           0        0.000000    0.136200    0.000000
      2          1           0        0.709801   -0.508675    0.000000
      3          1           0       -0.709801   -0.580922    0.000000
 ---------------------------------------------------------------------

 SCF Done:  E(RHF) =  -76.0334571620     A.U. after   10 cycles

 The electronic state is 1-A'.
 Alpha  occ. eigenvalues --  -20.58672  -1.35261  -0.68111  -0.60396  -0.51083
 Alpha virt. eigenvalues --    0.03377   0.05887   0.17273   0.19926   0.22121
 Alpha virt. eigenvalues --    0.23594   0.27703   0.34768   0.37835   0.39052
 Alpha virt. eigenvalues --    0.41344   0.54702   0.63480   0.65972   0.77448

 Mulliken charges:
               1
     1  O   -0.340703
     2  H    0.145142
     3  H    0.195560
 Sum of Mulliken charges =   0.00000

 Dipole moment (field-independent basis, Debye):
    X=              0.0300    Y=             -2.2085    Z=              0.0000  Tot=              2.2087
 Quadrupole moment (field-independent basis, Debye-Ang):
   XX=             -4.7778   YY=             -5.8895   ZZ=             -7.6299
   XY=              0.1030   XZ=              0.0000   YZ=              0.0000

 Normal termination of Gaussian 16 at Mon Feb 20 10:16:21 2023.
