 Gaussian 16, Revision C.01,
 Gaussian 16:  ES64L-G16RevC.01  3-Jul-2019

 ----------------------------------------
 #P CCSD(T)/aug-cc-pVTZ scf(maxcycle=200)
 ----------------------------------------

 --------------
 Gaussian input
 --------------
 Symbolic Z-matrix:
 Charge =  0 Multiplicity = 1

                         Standard orientation:
 ---------------------------------------------------------------------
 Center     Atomic      Atomic             Coordinates (Angstroms)
 Number     Number       Type             X           Y           Z
 ---------------------------------------------------------------------
      1          8           0        0.000000    0.125491    0.000000
      2          1           0        0.722938   -0.425546    0.000000
      3          1           0       -0.722938   -0.578385    0.000000
 ---------------------------------------------------------------------

 SCF Done:  E(RHF) =  -76.0541255815     A.U. after   10 cycles
 E2 =    -0.2690040213D+00 EUMP2 =    -0.76323129602837D+02
 CCSD(T)
 CCSD(T)= -0.76336488911D+02

 The electronic state is 1-A'.
 Alpha  occ. eigenvalues --  -20.56952  -1.35963  -0.70577  -0.59548  -0.51218
 Alpha virt. eigenvalues --    0.02889   0.04810   0.13472   0.15939   0.17527
 Alpha virt. eigenvalues --    0.18487   0.22519   0.24592   0.26758   0.29476
 Alpha virt. eigenvalues --    0.30686   0.36709   0.43223   0.47030   0.59585

 Mulliken charges:
               1
     1  O   -0.431751
     2  H    0.172196
     3  H    0.259556
 Sum of Mulliken charges =  -0.00000

 Dipole moment (field-independent basis, Debye):
    X=              0.0514    Y=             -2.0822    Z=              0.0000  Tot=              2.0828
 Quadrupole moment (field-independent basis, Debye-Ang):
   XX=             -4.5256   YY=             -6.0313   ZZ=             -7.5508
   XY=              0.2332   XZ=              0.0000   YZ=              0.0000

 3282746\CCSD=-76.3277947\CCSD(T)=-76.3364889\RMSD=4.044e-09\PG=CS [SG(
 Normal termination of Gaussian 16 at Wed Feb  8 13:50:18 2023.
