 Gaussian 16, Revision C.01,
 Gaussian 16:  ES64L-G16RevC.01  3-Jul-2019

 ------------------------------
 #P HF/6-31g* scf(maxcycle=200)
 ------------------------------

 --------------
 Gaussian input
 --------------
 Symbolic Z-matrix:
 Charge =  0 Multiplicity = 1

                         Standard orientation:
 ---------------------------------------------------------------------
 Center     Atomic      Atomic             Coordinates (Angstroms)
 Number     Number       Type             X           Y           Z
 ---------------------------------------------------------------------
      1          8           0       -0.000000    0.000000    0.103691
      2          1           0       -0.000000    0.746651   -0.414762
      3          1           0       -0.000000   -0.746651   -0.414762
 ---------------------------------------------------------------------

 SCF Done:  E(RHF) =  -76.0069299931     A.U. after   10 cycles

 The electronic state is 1-A1.
 Alpha  occ. eigenvalues --  -20.54762  -1.36294  -0.74613  -0.56754  -0.49938
 Alpha virt. eigenvalues --    0.22180   0.31611   1.07593   1.13528   1.16900
 Alpha virt. eigenvalues --    1.19898   1.40487   1.42252   2.01648   2.02654
 Alpha virt. eigenvalues --    2.06640   2.69601   3.03184   4.00832

 Mulliken charges:
               1
     1  O   -0.875945
     2  H    0.437972
     3  H    0.437972
 Sum of Mulliken charges =   0.00000

 Dipole moment (field-independent basis, Debye):
    X=             -0.0000    Y=             -0.0000    Z=             -2.0729  Tot=              2.0729
 Quadrupole moment (field-independent basis, Debye-Ang):
   XX=             -7.1238   YY=             -3.9749   ZZ=             -6.1061
   XY=              0.0000   XZ=              0.0000   YZ=              0.0000

 Normal termination of Gaussian 16 at Wed Feb  8 15:04:53 2023.
