 Gaussian 16, Revision C.01,
 Gaussian 16:  ES64L-G16RevC.01  3-Jul-2019

 ------------------------------
 #P HF/6-31g* scf(maxcycle=200)
 ------------------------------

 --------------
 Gaussian input
 --------------
 Symbolic Z-matrix:
 Charge =  0 Multiplicity = 1

                         Standard orientation:
 ---------------------------------------------------------------------
 Center     Atomic      Atomic             Coordinates (Angstroms)
 Number     Number       Type             X           Y           Z
 ---------------------------------------------------------------------
      1          8           0        0.000000    0.135276    0.000000
      2          1           0        0.677987   -0.470211    0.000000
      3          1           0       -0.677987   -0.611996    0.000000
 ---------------------------------------------------------------------

 SCF Done:  E(RHF) =  -75.9986667675     A.U. after   10 cycles

 The electronic state is 1-A'.
 Alpha  occ. eigenvalues --  -20.56757  -1.35655  -0.67891  -0.59858  -0.50349
 Alpha virt. eigenvalues --    0.20350   0.30311   0.96648   1.12709   1.16404
 Alpha virt. eigenvalues --    1.21768   1.37744   1.48977   1.98921   2.04213
 Alpha virt. eigenvalues --    2.05444   2.63361   2.91385   3.94157

 Mulliken charges:
               1
     1  O   -0.838870
     2  H    0.427411
     3  H    0.411459
 Sum of Mulliken charges =   0.00000

 Dipole moment (field-independent basis, Debye):
    X=              0.0979    Y=             -2.4528    Z=              0.0000  Tot=              2.4547
 Quadrupole moment (field-independent basis, Debye-Ang):
   XX=             -4.7981   YY=             -5.5686   ZZ=             -7.2322
   XY=              0.1686   XZ=              0.0000   YZ=              0.0000

 Normal termination of Gaussian 16 at Wed Feb  8 15:05:19 2023.
