 Gaussian 16, Revision C.01,
 Gaussian 16:  ES64L-G16RevC.01  3-Jul-2019

 ----------------------------------------
 #P PBE1PBE/aug-cc-pVDZ scf(maxcycle=200)
 ----------------------------------------

 --------------
 Gaussian input
 --------------
 Symbolic Z-matrix:
 Charge =  0 Multiplicity = 1

                         Standard orientation:
 ---------------------------------------------------------------------
 Center     Atomic      Atomic             Coordinates (Angstroms)
 Number     Number       Type             X           Y           Z
 ---------------------------------------------------------------------
      1          8           0        0.000000    0.114495    0.000000
      2          1           0        0.737286   -0.498767   -0.000000
      3          1           0       -0.737286   -0.417192    0.000000
 ---------------------------------------------------------------------

 SCF Done:  E(RPBE1PBE) =  -76.3568287291     A.U. after    8 cycles

 The electronic state is 1-A'.
 Alpha  occ. eigenvalues --  -19.22648  -1.06017  -0.56186  -0.41363  -0.33533
 Alpha virt. eigenvalues --   -0.01021   0.03374   0.11315   0.13119   0.14625
 Alpha virt. eigenvalues --    0.16960   0.19594   0.24206   0.29359   0.30900
 Alpha virt. eigenvalues --    0.33790   0.45765   0.52297   0.54859   0.64593

 Mulliken charges:
               1
     1  O   -0.166986
     2  H    0.109642
     3  H    0.057344
 Sum of Mulliken charges =  -0.00000

 Dipole moment (field-independent basis, Debye):
    X=             -0.0244    Y=             -1.8558    Z=             -0.0000  Tot=              1.8559
 Quadrupole moment (field-independent basis, Debye-Ang):
   XX=             -4.5265   YY=             -6.4056   ZZ=             -7.6845
   XY=             -0.1332   XZ=             -0.0000   YZ=              0.0000

 Normal termination of Gaussian 16 at Mon Mar 20 17:34:11 2023.
