 Gaussian 16, Revision C.01,
 Gaussian 16:  ES64L-G16RevC.01  3-Jul-2019

 ----------------------------------------
 #P CCSD(T)/aug-cc-pVDZ scf(maxcycle=200)
 ----------------------------------------

 --------------
 Gaussian input
 --------------
 Symbolic Z-matrix:
 Charge =  0 Multiplicity = 1

                         Standard orientation:
 ---------------------------------------------------------------------
 Center     Atomic      Atomic             Coordinates (Angstroms)
 Number     Number       Type             X           Y           Z
 ---------------------------------------------------------------------
      1          8           0        0.000000    0.131616   -0.000000
      2          1           0        0.662310   -0.561945   -0.000000
      3          1           0       -0.662310   -0.490981    0.000000
 ---------------------------------------------------------------------

 SCF Done:  E(RHF) =  -76.0329000335     A.U. after   10 cycles
 E2 =    -0.2186353530D+00 EUMP2 =    -0.76251535386418D+02
 CCSD(T)
 CCSD(T)= -0.76264348471D+02

 The electronic state is 1-A'.
 Alpha  occ. eigenvalues --  -20.57854  -1.38158  -0.70104  -0.61845  -0.51520
 Alpha virt. eigenvalues --    0.03439   0.05927   0.17136   0.19728   0.22427
 Alpha virt. eigenvalues --    0.23458   0.29162   0.35727   0.38289   0.39502
 Alpha virt. eigenvalues --    0.41862   0.55591   0.64615   0.66075   0.79476

 Mulliken charges:
               1
     1  O   -0.237408
     2  H    0.143904
     3  H    0.093504
 Sum of Mulliken charges =  -0.00000

 Dipole moment (field-independent basis, Debye):
    X=             -0.0307    Y=             -2.1908    Z=              0.0000  Tot=              2.1911
 Quadrupole moment (field-independent basis, Debye-Ang):
   XX=             -4.9285   YY=             -5.8311   ZZ=             -7.5092
   XY=             -0.0950   XZ=             -0.0000   YZ=             -0.0000

 38\CCSD=-76.2591882\CCSD(T)=-76.2643485\RMSD=5.210e-09\PG=CS [SG(H2O1)
 Normal termination of Gaussian 16 at Wed Feb  8 14:48:27 2023.
