 Gaussian 16, Revision C.01,
 Gaussian 16:  ES64L-G16RevC.01  3-Jul-2019

 ------------------------------------
 #P wB97XD/6-311g** scf(maxcycle=200)
 ------------------------------------

 --------------
 Gaussian input
 --------------
 Symbolic Z-matrix:
 Charge =  0 Multiplicity = 1

                         Standard orientation:
 ---------------------------------------------------------------------
 Center     Atomic      Atomic             Coordinates (Angstroms)
 Number     Number       Type             X           Y           Z
 ---------------------------------------------------------------------
      1          8           0       -0.000000   -0.000000    0.125774
      2          1           0        0.000000    0.656355   -0.503097
      3          1           0       -0.000000   -0.656355   -0.503097
 ---------------------------------------------------------------------

 SCF Done:  E(RwB97XD) =  -76.4132487396     A.U. after   12 cycles

 The electronic state is 1-A1.
 Alpha  occ. eigenvalues --  -19.22272  -1.13787  -0.60512  -0.49169  -0.39389
 Alpha virt. eigenvalues --    0.12459   0.20303   0.47351   0.56399   0.85165
 Alpha virt. eigenvalues --    0.85247   0.96581   1.16029   1.17883   1.40942
 Alpha virt. eigenvalues --    1.48191   1.87530   2.03255   2.23035   2.42540

 Mulliken charges:
               1
     1  O   -0.441822
     2  H    0.220911
     3  H    0.220911
 Sum of Mulliken charges =  -0.00000

 Dipole moment (field-independent basis, Debye):
    X=             -0.0000    Y=             -0.0000    Z=             -2.2081  Tot=              2.2081
 Quadrupole moment (field-independent basis, Debye-Ang):
   XX=             -7.0508   YY=             -4.7865   ZZ=             -5.7051
   XY=              0.0000   XZ=              0.0000   YZ=              0.0000

 Normal termination of Gaussian 16 at Wed Feb  8 14:40:00 2023.
