 Gaussian 16, Revision C.01,
 Gaussian 16:  ES64L-G16RevC.01  3-Jul-2019

 ------------------------------
 #P HF/6-31g* scf(maxcycle=200)
 ------------------------------

 --------------
 Gaussian input
 --------------
 Symbolic Z-matrix:
 Charge =  0 Multiplicity = 1

                         Standard orientation:
 ---------------------------------------------------------------------
 Center     Atomic      Atomic             Coordinates (Angstroms)
 Number     Number       Type             X           Y           Z
 ---------------------------------------------------------------------
      1          8           0        0.000000    0.112321    0.000000
      2          1           0        0.807194   -0.405481    0.000000
      3          1           0       -0.807194   -0.493087    0.000000
 ---------------------------------------------------------------------

 SCF Done:  E(RHF) =  -76.0059767438     A.U. after   10 cycles

 The electronic state is 1-A'.
 Alpha  occ. eigenvalues --  -20.56173  -1.32415  -0.70252  -0.55384  -0.49357
 Alpha virt. eigenvalues --    0.20424   0.29796   1.03270   1.09664   1.15489
 Alpha virt. eigenvalues --    1.16974   1.38030   1.41107   2.03578   2.04368
 Alpha virt. eigenvalues --    2.07929   2.59630   2.90390   3.96725

 Mulliken charges:
               1
     1  O   -0.874735
     2  H    0.440033
     3  H    0.434702
 Sum of Mulliken charges =  -0.00000

 Dipole moment (field-independent basis, Debye):
    X=              0.0384    Y=             -2.1396    Z=              0.0000  Tot=              2.1400
 Quadrupole moment (field-independent basis, Debye-Ang):
   XX=             -3.7977   YY=             -6.1418   ZZ=             -7.2814
   XY=              0.1547   XZ=              0.0000   YZ=              0.0000

 Normal termination of Gaussian 16 at Wed Feb  8 15:06:31 2023.
