 Gaussian 16, Revision C.01,
 Gaussian 16:  ES64L-G16RevC.01  3-Jul-2019

 ----------------------------------------
 #P PBE1PBE/aug-cc-pVDZ scf(maxcycle=200)
 ----------------------------------------

 --------------
 Gaussian input
 --------------
 Symbolic Z-matrix:
 Charge =  0 Multiplicity = 1

                         Standard orientation:
 ---------------------------------------------------------------------
 Center     Atomic      Atomic             Coordinates (Angstroms)
 Number     Number       Type             X           Y           Z
 ---------------------------------------------------------------------
      1          8           0       -0.000000    0.000000    0.126380
      2          1           0       -0.000000    0.786628   -0.505520
      3          1           0       -0.000000   -0.786628   -0.505520
 ---------------------------------------------------------------------

 SCF Done:  E(RPBE1PBE) =  -76.3560900480     A.U. after    8 cycles

 The electronic state is 1-A1.
 Alpha  occ. eigenvalues --  -19.23880  -1.02859  -0.52924  -0.41048  -0.32959
 Alpha virt. eigenvalues --   -0.01656   0.03032   0.10934   0.13300   0.13958
 Alpha virt. eigenvalues --    0.15255   0.18568   0.23501   0.28813   0.29384
 Alpha virt. eigenvalues --    0.32401   0.44671   0.50129   0.52210   0.63113

 Mulliken charges:
               1
     1  O   -0.323701
     2  H    0.161850
     3  H    0.161850
 Sum of Mulliken charges =  -0.00000

 Dipole moment (field-independent basis, Debye):
    X=             -0.0000    Y=             -0.0000    Z=             -1.9197  Tot=              1.9197
 Quadrupole moment (field-independent basis, Debye-Ang):
   XX=             -7.8643   YY=             -4.4574   ZZ=             -6.3960
   XY=              0.0000   XZ=              0.0000   YZ=             -0.0000

 Normal termination of Gaussian 16 at Wed Mar 29 21:53:44 2023.
