 Gaussian 16, Revision C.01,
 Gaussian 16:  ES64L-G16RevC.01  3-Jul-2019

 ----------------------------------------
 #P PBE1PBE/aug-cc-pVDZ scf(maxcycle=200)
 ----------------------------------------

 --------------
 Gaussian input
 --------------
 Symbolic Z-matrix:
 Charge =  0 Multiplicity = 1

                         Standard orientation:
 ---------------------------------------------------------------------
 Center     Atomic      Atomic             Coordinates (Angstroms)
 Number     Number       Type             X           Y           Z
 ---------------------------------------------------------------------
      1          8           0        0.000000    0.131163    0.000000
      2          1           0        0.733064   -0.487140    0.000000
      3          1           0       -0.733064   -0.562161    0.000000
 ---------------------------------------------------------------------

 SCF Done:  E(RPBE1PBE) =  -76.3566718523     A.U. after    9 cycles

 The electronic state is 1-A'.
 Alpha  occ. eigenvalues --  -19.23732  -1.04358  -0.52720  -0.42424  -0.33281
 Alpha virt. eigenvalues --   -0.01528   0.03226   0.10946   0.13292   0.14276
 Alpha virt. eigenvalues --    0.16045   0.18546   0.24691   0.28711   0.29374
 Alpha virt. eigenvalues --    0.31955   0.45712   0.50382   0.53635   0.62148

 Mulliken charges:
               1
     1  O   -0.264803
     2  H    0.108577
     3  H    0.156226
 Sum of Mulliken charges =  -0.00000

 Dipole moment (field-independent basis, Debye):
    X=              0.0276    Y=             -1.9936    Z=              0.0000  Tot=              1.9938
 Quadrupole moment (field-independent basis, Debye-Ang):
   XX=             -4.7738   YY=             -6.1945   ZZ=             -7.7916
   XY=              0.1117   XZ=              0.0000   YZ=              0.0000

 Normal termination of Gaussian 16 at Mon Mar 20 17:34:38 2023.
