 Gaussian 16, Revision C.01,
 Gaussian 16:  ES64L-G16RevC.01  3-Jul-2019

 ----------------------------------------
 #P PBE1PBE/aug-cc-pVDZ scf(maxcycle=200)
 ----------------------------------------

 --------------
 Gaussian input
 --------------
 Symbolic Z-matrix:
 Charge =  0 Multiplicity = 1

                         Standard orientation:
 ---------------------------------------------------------------------
 Center     Atomic      Atomic             Coordinates (Angstroms)
 Number     Number       Type             X           Y           Z
 ---------------------------------------------------------------------
      1          8           0       -0.000000   -0.000000    0.127779
      2          1           0       -0.000000    0.715190   -0.511114
      3          1           0       -0.000000   -0.715190   -0.511114
 ---------------------------------------------------------------------

 SCF Done:  E(RPBE1PBE) =  -76.3582127518     A.U. after    8 cycles

 The electronic state is 1-A1.
 Alpha  occ. eigenvalues --  -19.23358  -1.05425  -0.53625  -0.42665  -0.33477
 Alpha virt. eigenvalues --   -0.01306   0.03348   0.11110   0.13247   0.14653
 Alpha virt. eigenvalues --    0.16628   0.18718   0.25001   0.29069   0.29633
 Alpha virt. eigenvalues --    0.32266   0.46126   0.51517   0.54282   0.62242

 Mulliken charges:
               1
     1  O   -0.213745
     2  H    0.106873
     3  H    0.106873
 Sum of Mulliken charges =   0.00000

 Dipole moment (field-independent basis, Debye):
    X=             -0.0000    Y=             -0.0000    Z=             -1.9801  Tot=              1.9801
 Quadrupole moment (field-independent basis, Debye-Ang):
   XX=             -7.7317   YY=             -4.8067   ZZ=             -6.1942
   XY=              0.0000   XZ=              0.0000   YZ=              0.0000

 Normal termination of Gaussian 16 at Mon Mar 20 17:34:18 2023.
