 Gaussian 16, Revision C.01,
 Gaussian 16:  ES64L-G16RevC.01  3-Jul-2019

 -----------------------------------
 #P HF/aug-cc-pVDZ scf(maxcycle=200)
 -----------------------------------

 --------------
 Gaussian input
 --------------
 Symbolic Z-matrix:
 Charge =  0 Multiplicity = 1

                         Standard orientation:
 ---------------------------------------------------------------------
 Center     Atomic      Atomic             Coordinates (Angstroms)
 Number     Number       Type             X           Y           Z
 ---------------------------------------------------------------------
      1          8           0       -0.000000    0.000000    0.135089
      2          1           0        0.000000    0.680773   -0.540358
      3          1           0       -0.000000   -0.680773   -0.540358
 ---------------------------------------------------------------------

 SCF Done:  E(RHF) =  -76.0349840247     A.U. after   10 cycles

 The electronic state is 1-A1.
 Alpha  occ. eigenvalues --  -20.58322  -1.36684  -0.68829  -0.61366  -0.51315
 Alpha virt. eigenvalues --    0.03403   0.05916   0.17204   0.19845   0.22324
 Alpha virt. eigenvalues --    0.23550   0.28427   0.35388   0.37862   0.39391
 Alpha virt. eigenvalues --    0.41408   0.55236   0.64248   0.66044   0.78036

 Mulliken charges:
               1
     1  O   -0.290498
     2  H    0.145249
     3  H    0.145249
 Sum of Mulliken charges =   0.00000

 Dipole moment (field-independent basis, Debye):
    X=             -0.0000    Y=             -0.0000    Z=             -2.2147  Tot=              2.2147
 Quadrupole moment (field-independent basis, Debye-Ang):
   XX=             -7.5693   YY=             -4.8975   ZZ=             -5.8355
   XY=              0.0000   XZ=              0.0000   YZ=              0.0000

 Normal termination of Gaussian 16 at Mon Feb 20 10:27:57 2023.
