 Gaussian 16, Revision C.01,
 Gaussian 16:  ES64L-G16RevC.01  3-Jul-2019

 ------------------------------------
 #P wB97XD/6-311g** scf(maxcycle=200)
 ------------------------------------

 --------------
 Gaussian input
 --------------
 Symbolic Z-matrix:
 Charge =  0 Multiplicity = 1

                         Standard orientation:
 ---------------------------------------------------------------------
 Center     Atomic      Atomic             Coordinates (Angstroms)
 Number     Number       Type             X           Y           Z
 ---------------------------------------------------------------------
      1          8           0       -0.000000    0.141071   -0.000000
      2          1           0        0.685666   -0.599161    0.000000
      3          1           0       -0.685666   -0.529409    0.000000
 ---------------------------------------------------------------------

 SCF Done:  E(RwB97XD) =  -76.4154352334     A.U. after   12 cycles

 The electronic state is 1-A'.
 Alpha  occ. eigenvalues --  -19.23780  -1.10610  -0.57047  -0.49359  -0.38916
 Alpha virt. eigenvalues --    0.10805   0.18670   0.43193   0.52115   0.85263
 Alpha virt. eigenvalues --    0.86151   0.95641   1.14129   1.18017   1.40600
 Alpha virt. eigenvalues --    1.44994   1.83449   1.93676   2.14783   2.39750

 Mulliken charges:
               1
     1  O   -0.434873
     2  H    0.216646
     3  H    0.218227
 Sum of Mulliken charges =   0.00000

 Dipole moment (field-independent basis, Debye):
    X=             -0.0480    Y=             -2.2961    Z=              0.0000  Tot=              2.2966
 Quadrupole moment (field-independent basis, Debye-Ang):
   XX=             -4.9018   YY=             -5.5928   ZZ=             -7.2111
   XY=             -0.0795   XZ=              0.0000   YZ=              0.0000

 Normal termination of Gaussian 16 at Wed Feb  8 14:42:28 2023.
