 Gaussian 16, Revision C.01,
 Gaussian 16:  ES64L-G16RevC.01  3-Jul-2019

 ----------------------------------------
 #P CCSD(T)/aug-cc-pVTZ scf(maxcycle=200)
 ----------------------------------------

 --------------
 Gaussian input
 --------------
 Symbolic Z-matrix:
 Charge =  0 Multiplicity = 1

                         Standard orientation:
 ---------------------------------------------------------------------
 Center     Atomic      Atomic             Coordinates (Angstroms)
 Number     Number       Type             X           Y           Z
 ---------------------------------------------------------------------
      1          8           0        0.000000    0.138368    0.000000
      2          1           0        0.627054   -0.587224   -0.000000
      3          1           0       -0.627054   -0.519723    0.000000
 ---------------------------------------------------------------------

 SCF Done:  E(RHF) =  -76.0452960824     A.U. after   10 cycles
 E2 =    -0.2689105815D+00 EUMP2 =    -0.76314206663894D+02
 CCSD(T)
 CCSD(T)= -0.76327284839D+02

 The electronic state is 1-A'.
 Alpha  occ. eigenvalues --  -20.57011  -1.38437  -0.68539  -0.62987  -0.51769
 Alpha virt. eigenvalues --    0.02810   0.04903   0.13220   0.16050   0.17804
 Alpha virt. eigenvalues --    0.18794   0.22389   0.24915   0.27250   0.28327
 Alpha virt. eigenvalues --    0.30171   0.37288   0.43440   0.47203   0.58918

 Mulliken charges:
               1
     1  O   -0.416384
     2  H    0.232827
     3  H    0.183557
 Sum of Mulliken charges =   0.00000

 Dipole moment (field-independent basis, Debye):
    X=             -0.0320    Y=             -2.2601    Z=             -0.0000  Tot=              2.2603
 Quadrupole moment (field-independent basis, Debye-Ang):
   XX=             -5.1519   YY=             -5.6255   ZZ=             -7.4816
   XY=             -0.0785   XZ=              0.0000   YZ=             -0.0000

 .3191491\CCSD=-76.3186653\CCSD(T)=-76.3272848\RMSD=2.550e-09\PG=CS [SG
 Normal termination of Gaussian 16 at Wed Feb  8 13:52:07 2023.
