 Gaussian 16, Revision C.01,
 Gaussian 16:  ES64L-G16RevC.01  3-Jul-2019

 ----------------------------------------
 #P PBE1PBE/aug-cc-pVDZ scf(maxcycle=200)
 ----------------------------------------

 --------------
 Gaussian input
 --------------
 Symbolic Z-matrix:
 Charge =  0 Multiplicity = 1

                         Standard orientation:
 ---------------------------------------------------------------------
 Center     Atomic      Atomic             Coordinates (Angstroms)
 Number     Number       Type             X           Y           Z
 ---------------------------------------------------------------------
      1          8           0       -0.000000   -0.000000    0.095733
      2          1           0       -0.000000    0.772761   -0.382933
      3          1           0       -0.000000   -0.772761   -0.382933
 ---------------------------------------------------------------------

 SCF Done:  E(RPBE1PBE) =  -76.3518377423     A.U. after    8 cycles

 The electronic state is 1-A1.
 Alpha  occ. eigenvalues --  -19.21800  -1.06282  -0.59463  -0.39415  -0.33545
 Alpha virt. eigenvalues --   -0.00712   0.03360   0.11540   0.12937   0.14595
 Alpha virt. eigenvalues --    0.16770   0.21200   0.22918   0.28976   0.33617
 Alpha virt. eigenvalues --    0.35967   0.44899   0.53701   0.54586   0.68712

 Mulliken charges:
               1
     1  O   -0.138088
     2  H    0.069044
     3  H    0.069044
 Sum of Mulliken charges =   0.00000

 Dipole moment (field-independent basis, Debye):
    X=             -0.0000    Y=             -0.0000    Z=             -1.6561  Tot=              1.6561
 Quadrupole moment (field-independent basis, Debye-Ang):
   XX=             -7.6462   YY=             -4.1256   ZZ=             -6.7216
   XY=              0.0000   XZ=              0.0000   YZ=              0.0000

 Normal termination of Gaussian 16 at Mon Mar 20 17:57:05 2023.
