 Gaussian 16, Revision C.01,
 Gaussian 16:  ES64L-G16RevC.01  3-Jul-2019

 ----------------------------------------
 #P PBE1PBE/aug-cc-pVDZ scf(maxcycle=200)
 ----------------------------------------

 --------------
 Gaussian input
 --------------
 Symbolic Z-matrix:
 Charge =  0 Multiplicity = 1

                         Standard orientation:
 ---------------------------------------------------------------------
 Center     Atomic      Atomic             Coordinates (Angstroms)
 Number     Number       Type             X           Y           Z
 ---------------------------------------------------------------------
      1          8           0       -0.000000   -0.000000    0.116311
      2          1           0        0.000000    0.698624   -0.465244
      3          1           0       -0.000000   -0.698624   -0.465244
 ---------------------------------------------------------------------

 SCF Done:  E(RPBE1PBE) =  -76.3529468005     A.U. after    8 cycles

 The electronic state is 1-A1.
 Alpha  occ. eigenvalues --  -19.22380  -1.07509  -0.56411  -0.42366  -0.33829
 Alpha virt. eigenvalues --   -0.00888   0.03512   0.11330   0.13102   0.15052
 Alpha virt. eigenvalues --    0.17313   0.19923   0.25136   0.29840   0.30570
 Alpha virt. eigenvalues --    0.33570   0.46579   0.53170   0.55263   0.64550

 Mulliken charges:
               1
     1  O   -0.106452
     2  H    0.053226
     3  H    0.053226
 Sum of Mulliken charges =   0.00000

 Dipole moment (field-independent basis, Debye):
    X=             -0.0000    Y=             -0.0000    Z=             -1.8979  Tot=              1.8979
 Quadrupole moment (field-independent basis, Debye-Ang):
   XX=             -7.6134   YY=             -4.7216   ZZ=             -6.2835
   XY=              0.0000   XZ=              0.0000   YZ=              0.0000

 Normal termination of Gaussian 16 at Mon Mar 20 17:56:54 2023.
