 Gaussian 16, Revision C.01,
 Gaussian 16:  ES64L-G16RevC.01  3-Jul-2019

 ------------------------------------
 #P wB97XD/6-311g** scf(maxcycle=200)
 ------------------------------------

 --------------
 Gaussian input
 --------------
 Symbolic Z-matrix:
 Charge =  0 Multiplicity = 1

                         Standard orientation:
 ---------------------------------------------------------------------
 Center     Atomic      Atomic             Coordinates (Angstroms)
 Number     Number       Type             X           Y           Z
 ---------------------------------------------------------------------
      1          8           0       -0.000000   -0.000000    0.127779
      2          1           0       -0.000000    0.715190   -0.511114
      3          1           0       -0.000000   -0.715190   -0.511114
 ---------------------------------------------------------------------

 SCF Done:  E(RwB97XD) =  -76.4218823166     A.U. after   12 cycles

 The electronic state is 1-A1.
 Alpha  occ. eigenvalues --  -19.22996  -1.10956  -0.59517  -0.47904  -0.38867
 Alpha virt. eigenvalues --    0.11678   0.19232   0.45338   0.52670   0.85390
 Alpha virt. eigenvalues --    0.85494   0.95609   1.16323   1.22059   1.37855
 Alpha virt. eigenvalues --    1.50192   1.80203   1.98673   2.17027   2.37496

 Mulliken charges:
               1
     1  O   -0.457854
     2  H    0.228927
     3  H    0.228927
 Sum of Mulliken charges =  -0.00000

 Dipole moment (field-independent basis, Debye):
    X=             -0.0000    Y=             -0.0000    Z=             -2.1961  Tot=              2.1961
 Quadrupole moment (field-independent basis, Debye-Ang):
   XX=             -7.1637   YY=             -4.5689   ZZ=             -5.8170
   XY=              0.0000   XZ=              0.0000   YZ=              0.0000

 Normal termination of Gaussian 16 at Wed Feb  8 14:41:31 2023.
