 Gaussian 16, Revision C.01,
 Gaussian 16:  ES64L-G16RevC.01  3-Jul-2019

 ------------------------------------
 #P wB97XD/6-311g** scf(maxcycle=200)
 ------------------------------------

 --------------
 Gaussian input
 --------------
 Symbolic Z-matrix:
 Charge =  0 Multiplicity = 1

                         Standard orientation:
 ---------------------------------------------------------------------
 Center     Atomic      Atomic             Coordinates (Angstroms)
 Number     Number       Type             X           Y           Z
 ---------------------------------------------------------------------
      1          8           0        0.000000    0.137622    0.000000
      2          1           0        0.666206   -0.480804    0.000000
      3          1           0       -0.666206   -0.620171    0.000000
 ---------------------------------------------------------------------

 SCF Done:  E(RwB97XD) =  -76.4119224404     A.U. after   12 cycles

 The electronic state is 1-A'.
 Alpha  occ. eigenvalues --  -19.23310  -1.11912  -0.57881  -0.49552  -0.39111
 Alpha virt. eigenvalues --    0.11125   0.19346   0.43756   0.54398   0.85229
 Alpha virt. eigenvalues --    0.85859   0.95951   1.14341   1.17806   1.41137
 Alpha virt. eigenvalues --    1.45444   1.85765   1.94631   2.19243   2.41523

 Mulliken charges:
               1
     1  O   -0.433849
     2  H    0.219011
     3  H    0.214838
 Sum of Mulliken charges =   0.00000

 Dipole moment (field-independent basis, Debye):
    X=              0.0947    Y=             -2.2801    Z=              0.0000  Tot=              2.2821
 Quadrupole moment (field-independent basis, Debye-Ang):
   XX=             -4.9250   YY=             -5.5841   ZZ=             -7.1562
   XY=              0.1570   XZ=              0.0000   YZ=              0.0000

 Normal termination of Gaussian 16 at Wed Feb  8 14:40:40 2023.
