 Gaussian 16, Revision C.01,
 Gaussian 16:  ES64L-G16RevC.01  3-Jul-2019

 ----------------------------------------
 #P CCSD(T)/aug-cc-pVTZ scf(maxcycle=200)
 ----------------------------------------

 --------------
 Gaussian input
 --------------
 Symbolic Z-matrix:
 Charge =  0 Multiplicity = 1

                         Standard orientation:
 ---------------------------------------------------------------------
 Center     Atomic      Atomic             Coordinates (Angstroms)
 Number     Number       Type             X           Y           Z
 ---------------------------------------------------------------------
      1          8           0        0.000000    0.101356    0.000000
      2          1           0        0.810186   -0.500041   -0.000000
      3          1           0       -0.810186   -0.310808    0.000000
 ---------------------------------------------------------------------

 SCF Done:  E(RHF) =  -76.0526172003     A.U. after   10 cycles
 E2 =    -0.2679377337D+00 EUMP2 =    -0.76320554933988D+02
 CCSD(T)
 CCSD(T)= -0.76333907599D+02

 The electronic state is 1-A'.
 Alpha  occ. eigenvalues --  -20.56125  -1.34699  -0.73849  -0.56118  -0.50669
 Alpha virt. eigenvalues --    0.02994   0.04701   0.13719   0.15636   0.17058
 Alpha virt. eigenvalues --    0.18079   0.23067   0.24329   0.26107   0.31382
 Alpha virt. eigenvalues --    0.31975   0.36412   0.43075   0.47013   0.60785

 Mulliken charges:
               1
     1  O   -0.434212
     2  H    0.262615
     3  H    0.171597
 Sum of Mulliken charges =   0.00000

 Dipole moment (field-independent basis, Debye):
    X=             -0.0270    Y=             -1.7795    Z=             -0.0000  Tot=              1.7797
 Quadrupole moment (field-independent basis, Debye-Ang):
   XX=             -3.7570   YY=             -6.5558   ZZ=             -7.5832
   XY=             -0.3727   XZ=             -0.0000   YZ=              0.0000

 .3257735\CCSD=-76.3253011\CCSD(T)=-76.3339076\RMSD=3.946e-09\PG=CS [SG
 Normal termination of Gaussian 16 at Wed Feb  8 13:55:52 2023.
