 Gaussian 16, Revision C.01,
 Gaussian 16:  ES64L-G16RevC.01  3-Jul-2019

 ----------------------------------------
 #P CCSD(T)/aug-cc-pVDZ scf(maxcycle=200)
 ----------------------------------------

 --------------
 Gaussian input
 --------------
 Symbolic Z-matrix:
 Charge =  0 Multiplicity = 1

                         Standard orientation:
 ---------------------------------------------------------------------
 Center     Atomic      Atomic             Coordinates (Angstroms)
 Number     Number       Type             X           Y           Z
 ---------------------------------------------------------------------
      1          8           0        0.000000    0.114495    0.000000
      2          1           0        0.737286   -0.417192    0.000000
      3          1           0       -0.737286   -0.498767    0.000000
 ---------------------------------------------------------------------

 SCF Done:  E(RHF) =  -76.0400345980     A.U. after   10 cycles
 E2 =    -0.2173086569D+00 EUMP2 =    -0.76257343254899D+02
 CCSD(T)
 CCSD(T)= -0.76270285477D+02

 The electronic state is 1-A'.
 Alpha  occ. eigenvalues --  -20.57314  -1.36975  -0.73229  -0.59002  -0.51152
 Alpha virt. eigenvalues --    0.03578   0.05805   0.17328   0.19547   0.22389
 Alpha virt. eigenvalues --    0.23073   0.29674   0.33547   0.38733   0.40767
 Alpha virt. eigenvalues --    0.43763   0.54278   0.65092   0.66115   0.82403

 Mulliken charges:
               1
     1  O   -0.244438
     2  H    0.093971
     3  H    0.150466
 Sum of Mulliken charges =   0.00000

 Dipole moment (field-independent basis, Debye):
    X=              0.0237    Y=             -1.9814    Z=              0.0000  Tot=              1.9815
 Quadrupole moment (field-independent basis, Debye-Ang):
   XX=             -4.3403   YY=             -6.2401   ZZ=             -7.5320
   XY=              0.1369   XZ=              0.0000   YZ=              0.0000

 .2654357\CCSD=-76.2652439\CCSD(T)=-76.2702855\RMSD=5.927e-09\PG=CS [SG
 Normal termination of Gaussian 16 at Wed Feb  8 14:47:31 2023.
