 Gaussian 16, Revision C.01,
 Gaussian 16:  ES64L-G16RevC.01  3-Jul-2019

 ---------------------------------
 #P B3LYP/6-31g* scf(maxcycle=200)
 ---------------------------------

 --------------
 Gaussian input
 --------------
 Symbolic Z-matrix:
 Charge =  0 Multiplicity = 1

                         Standard orientation:
 ---------------------------------------------------------------------
 Center     Atomic      Atomic             Coordinates (Angstroms)
 Number     Number       Type             X           Y           Z
 ---------------------------------------------------------------------
      1          8           0        0.000000    0.115105    0.000000
      2          1           0        0.764207   -0.377104    0.000000
      3          1           0       -0.764207   -0.543734    0.000000
 ---------------------------------------------------------------------

 SCF Done:  E(RB3LYP) =  -76.4035591249     A.U. after    9 cycles

 The electronic state is 1-A'.
 Alpha  occ. eigenvalues --  -19.13464  -1.00189  -0.52539  -0.36714  -0.29117
 Alpha virt. eigenvalues --    0.06218   0.15409   0.77231   0.88225   0.89146
 Alpha virt. eigenvalues --    0.89351   1.07480   1.18716   1.73507   1.74123
 Alpha virt. eigenvalues --    1.78204   2.27670   2.61786   3.56371

 Mulliken charges:
               1
     1  O   -0.778675
     2  H    0.396360
     3  H    0.382316
 Sum of Mulliken charges =   0.00000

 Dipole moment (field-independent basis, Debye):
    X=              0.0928    Y=             -2.0463    Z=              0.0000  Tot=              2.0484
 Quadrupole moment (field-independent basis, Debye-Ang):
   XX=             -4.1967   YY=             -6.0261   ZZ=             -7.1817
   XY=              0.2491   XZ=              0.0000   YZ=              0.0000

 Normal termination of Gaussian 16 at Wed Feb  8 14:50:29 2023.
