 Gaussian 16, Revision C.01,
 Gaussian 16:  ES64L-G16RevC.01  3-Jul-2019

 ---------------------------------
 #P B3LYP/6-31g* scf(maxcycle=200)
 ---------------------------------

 --------------
 Gaussian input
 --------------
 Symbolic Z-matrix:
 Charge =  0 Multiplicity = 1

                         Standard orientation:
 ---------------------------------------------------------------------
 Center     Atomic      Atomic             Coordinates (Angstroms)
 Number     Number       Type             X           Y           Z
 ---------------------------------------------------------------------
      1          8           0        0.000000    0.114495    0.000000
      2          1           0        0.737286   -0.498767   -0.000000
      3          1           0       -0.737286   -0.417192    0.000000
 ---------------------------------------------------------------------

 SCF Done:  E(RB3LYP) =  -76.4051291286     A.U. after    9 cycles

 The electronic state is 1-A'.
 Alpha  occ. eigenvalues --  -19.13163  -1.01339  -0.53189  -0.37302  -0.29365
 Alpha virt. eigenvalues --    0.07126   0.16081   0.78787   0.88516   0.89073
 Alpha virt. eigenvalues --    0.91210   1.07754   1.19689   1.72342   1.73765
 Alpha virt. eigenvalues --    1.77537   2.31848   2.64442   3.57181

 Mulliken charges:
               1
     1  O   -0.780824
     2  H    0.387604
     3  H    0.393220
 Sum of Mulliken charges =  -0.00000

 Dipole moment (field-independent basis, Debye):
    X=             -0.0463    Y=             -2.0694    Z=             -0.0000  Tot=              2.0699
 Quadrupole moment (field-independent basis, Debye-Ang):
   XX=             -4.3043   YY=             -5.9866   ZZ=             -7.1339
   XY=             -0.1173   XZ=              0.0000   YZ=              0.0000

 Normal termination of Gaussian 16 at Wed Feb  8 14:50:54 2023.
