 Gaussian 16, Revision C.01,
 Gaussian 16:  ES64L-G16RevC.01  3-Jul-2019

 ------------------------------------
 #P wB97XD/6-311g** scf(maxcycle=200)
 ------------------------------------

 --------------
 Gaussian input
 --------------
 Symbolic Z-matrix:
 Charge =  0 Multiplicity = 1

                         Standard orientation:
 ---------------------------------------------------------------------
 Center     Atomic      Atomic             Coordinates (Angstroms)
 Number     Number       Type             X           Y           Z
 ---------------------------------------------------------------------
      1          8           0        0.000000    0.109279    0.000000
      2          1           0        0.756707   -0.394383    0.000000
      3          1           0       -0.756707   -0.479852    0.000000
 ---------------------------------------------------------------------

 SCF Done:  E(RwB97XD) =  -76.4204967433     A.U. after   12 cycles

 The electronic state is 1-A'.
 Alpha  occ. eigenvalues --  -19.21954  -1.11121  -0.62708  -0.45702  -0.38734
 Alpha virt. eigenvalues --    0.12461   0.19742   0.47925   0.51903   0.84888
 Alpha virt. eigenvalues --    0.85511   0.95377   1.14989   1.34400   1.38602
 Alpha virt. eigenvalues --    1.57561   1.73955   2.06469   2.15938   2.41150

 Mulliken charges:
               1
     1  O   -0.499146
     2  H    0.250164
     3  H    0.248983
 Sum of Mulliken charges =  -0.00000

 Dipole moment (field-independent basis, Debye):
    X=              0.0410    Y=             -2.0260    Z=              0.0000  Tot=              2.0264
 Quadrupole moment (field-independent basis, Debye-Ang):
   XX=             -4.1042   YY=             -6.1111   ZZ=             -7.1184
   XY=              0.1380   XZ=              0.0000   YZ=              0.0000

 Normal termination of Gaussian 16 at Wed Feb  8 14:40:26 2023.
