 Gaussian 16, Revision C.01,
 Gaussian 16:  ES64L-G16RevC.01  3-Jul-2019

 ---------------------------------
 #P B3LYP/6-31g* scf(maxcycle=200)
 ---------------------------------

 --------------
 Gaussian input
 --------------
 Symbolic Z-matrix:
 Charge =  0 Multiplicity = 1

                         Standard orientation:
 ---------------------------------------------------------------------
 Center     Atomic      Atomic             Coordinates (Angstroms)
 Number     Number       Type             X           Y           Z
 ---------------------------------------------------------------------
      1          8           0        0.000000    0.106621   -0.000000
      2          1           0        0.766067   -0.470286   -0.000000
      3          1           0       -0.766067   -0.382686    0.000000
 ---------------------------------------------------------------------

 SCF Done:  E(RB3LYP) =  -76.4043580626     A.U. after    9 cycles

 The electronic state is 1-A'.
 Alpha  occ. eigenvalues --  -19.12849  -1.00784  -0.54215  -0.36086  -0.29165
 Alpha virt. eigenvalues --    0.07209   0.16185   0.81126   0.88183   0.89072
 Alpha virt. eigenvalues --    0.89214   1.08190   1.18007   1.73273   1.74252
 Alpha virt. eigenvalues --    1.78267   2.32819   2.64368   3.58269

 Mulliken charges:
               1
     1  O   -0.791083
     2  H    0.393456
     3  H    0.397628
 Sum of Mulliken charges =   0.00000

 Dipole moment (field-independent basis, Debye):
    X=             -0.0430    Y=             -1.9729    Z=              0.0000  Tot=              1.9733
 Quadrupole moment (field-independent basis, Debye-Ang):
   XX=             -4.0526   YY=             -6.1293   ZZ=             -7.1320
   XY=             -0.1394   XZ=              0.0000   YZ=              0.0000

 Normal termination of Gaussian 16 at Wed Feb  8 14:50:50 2023.
