 Gaussian 16, Revision C.01,
 Gaussian 16:  ES64L-G16RevC.01  3-Jul-2019

 ----------------------------------------
 #P CCSD(T)/aug-cc-pVTZ scf(maxcycle=200)
 ----------------------------------------

 --------------
 Gaussian input
 --------------
 Symbolic Z-matrix:
 Charge =  0 Multiplicity = 1

                         Standard orientation:
 ---------------------------------------------------------------------
 Center     Atomic      Atomic             Coordinates (Angstroms)
 Number     Number       Type             X           Y           Z
 ---------------------------------------------------------------------
      1          8           0        0.000000   -0.000000    0.098416
      2          1           0        0.000000    0.764290   -0.393663
      3          1           0       -0.000000   -0.764290   -0.393663
 ---------------------------------------------------------------------

 SCF Done:  E(RHF) =  -76.0575805910     A.U. after   10 cycles
 E2 =    -0.2641690776D+00 EUMP2 =    -0.76321749668662D+02
 CCSD(T)
 CCSD(T)= -0.76335030311D+02

 The electronic state is 1-A1.
 Alpha  occ. eigenvalues --  -20.55413  -1.37255  -0.76518  -0.57457  -0.51200
 Alpha virt. eigenvalues --    0.03057   0.04729   0.13710   0.15404   0.17432
 Alpha virt. eigenvalues --    0.18041   0.23442   0.24572   0.26251   0.31389
 Alpha virt. eigenvalues --    0.32008   0.36549   0.44845   0.47272   0.61088

 Mulliken charges:
               1
     1  O   -0.346884
     2  H    0.173442
     3  H    0.173442
 Sum of Mulliken charges =   0.00000

 Dipole moment (field-independent basis, Debye):
    X=             -0.0000    Y=              0.0000    Z=             -1.7745  Tot=              1.7745
 Quadrupole moment (field-independent basis, Debye-Ang):
   XX=             -7.4602   YY=             -3.9624   ZZ=             -6.4878
   XY=              0.0000   XZ=              0.0000   YZ=             -0.0000

 .3273331\CCSD=-76.3269076\CCSD(T)=-76.3350303\RMSD=2.120e-09\PG=C02V [
 Normal termination of Gaussian 16 at Wed Feb  8 13:48:38 2023.
