 Gaussian 16, Revision C.01,
 Gaussian 16:  ES64L-G16RevC.01  3-Jul-2019

 ------------------------------------
 #P wB97XD/6-311g** scf(maxcycle=200)
 ------------------------------------

 --------------
 Gaussian input
 --------------
 Symbolic Z-matrix:
 Charge =  0 Multiplicity = 1

                         Standard orientation:
 ---------------------------------------------------------------------
 Center     Atomic      Atomic             Coordinates (Angstroms)
 Number     Number       Type             X           Y           Z
 ---------------------------------------------------------------------
      1          8           0        0.000000    0.112321    0.000000
      2          1           0        0.807194   -0.405481    0.000000
      3          1           0       -0.807194   -0.493087    0.000000
 ---------------------------------------------------------------------

 SCF Done:  E(RwB97XD) =  -76.4197129525     A.U. after   12 cycles

 The electronic state is 1-A'.
 Alpha  occ. eigenvalues --  -19.22655  -1.08810  -0.61013  -0.44878  -0.38253
 Alpha virt. eigenvalues --    0.11392   0.18741   0.45662   0.48601   0.85149
 Alpha virt. eigenvalues --    0.85632   0.94546   1.15484   1.32998   1.43008
 Alpha virt. eigenvalues --    1.57218   1.68269   2.01005   2.10705   2.41379

 Mulliken charges:
               1
     1  O   -0.513409
     2  H    0.256491
     3  H    0.256918
 Sum of Mulliken charges =  -0.00000

 Dipole moment (field-independent basis, Debye):
    X=              0.0404    Y=             -2.0215    Z=              0.0000  Tot=              2.0219
 Quadrupole moment (field-independent basis, Debye-Ang):
   XX=             -3.9062   YY=             -6.1931   ZZ=             -7.2320
   XY=              0.1493   XZ=              0.0000   YZ=              0.0000

 Normal termination of Gaussian 16 at Wed Feb  8 14:41:58 2023.
