 Gaussian 16, Revision C.01,
 Gaussian 16:  ES64L-G16RevC.01  3-Jul-2019

 ------------------------------------
 #P wB97XD/6-311g** scf(maxcycle=200)
 ------------------------------------

 --------------
 Gaussian input
 --------------
 Symbolic Z-matrix:
 Charge =  0 Multiplicity = 1

                         Standard orientation:
 ---------------------------------------------------------------------
 Center     Atomic      Atomic             Coordinates (Angstroms)
 Number     Number       Type             X           Y           Z
 ---------------------------------------------------------------------
      1          8           0        0.000000   -0.000000    0.109394
      2          1           0        0.000000    0.787721   -0.437577
      3          1           0       -0.000000   -0.787721   -0.437577
 ---------------------------------------------------------------------

 SCF Done:  E(RwB97XD) =  -76.4223911476     A.U. after   12 cycles

 The electronic state is 1-A1.
 Alpha  occ. eigenvalues --  -19.22273  -1.09798  -0.62014  -0.45091  -0.38454
 Alpha virt. eigenvalues --    0.12022   0.19243   0.47705   0.49109   0.85025
 Alpha virt. eigenvalues --    0.85610   0.94876   1.15165   1.33343   1.42248
 Alpha virt. eigenvalues --    1.57852   1.70469   2.05011   2.12674   2.41208

 Mulliken charges:
               1
     1  O   -0.509338
     2  H    0.254669
     3  H    0.254669
 Sum of Mulliken charges =  -0.00000

 Dipole moment (field-independent basis, Debye):
    X=             -0.0000    Y=             -0.0000    Z=             -2.0095  Tot=              2.0095
 Quadrupole moment (field-independent basis, Debye-Ang):
   XX=             -7.1771   YY=             -3.9579   ZZ=             -6.1867
   XY=              0.0000   XZ=              0.0000   YZ=             -0.0000

 Normal termination of Gaussian 16 at Wed Feb  8 14:41:27 2023.
