 Gaussian 16, Revision C.01,
 Gaussian 16:  ES64L-G16RevC.01  3-Jul-2019

 ----------------------------------------
 #P PBE1PBE/aug-cc-pVDZ scf(maxcycle=200)
 ----------------------------------------

 --------------
 Gaussian input
 --------------
 Symbolic Z-matrix:
 Charge =  0 Multiplicity = 1

                         Standard orientation:
 ---------------------------------------------------------------------
 Center     Atomic      Atomic             Coordinates (Angstroms)
 Number     Number       Type             X           Y           Z
 ---------------------------------------------------------------------
      1          8           0        0.000000    0.103719    0.000000
      2          1           0        0.835278   -0.462312   -0.000000
      3          1           0       -0.835278   -0.367440    0.000000
 ---------------------------------------------------------------------

 SCF Done:  E(RPBE1PBE) =  -76.3542997712     A.U. after    9 cycles

 The electronic state is 1-A'.
 Alpha  occ. eigenvalues --  -19.22908  -1.03043  -0.56147  -0.38693  -0.32853
 Alpha virt. eigenvalues --   -0.01365   0.03031   0.11170   0.13138   0.13443
 Alpha virt. eigenvalues --    0.15979   0.19606   0.22103   0.28223   0.32485
 Alpha virt. eigenvalues --    0.34913   0.43535   0.50656   0.53341   0.66240

 Mulliken charges:
               1
     1  O   -0.307717
     2  H    0.181546
     3  H    0.126171
 Sum of Mulliken charges =  -0.00000

 Dipole moment (field-independent basis, Debye):
    X=             -0.0160    Y=             -1.6873    Z=             -0.0000  Tot=              1.6874
 Quadrupole moment (field-independent basis, Debye-Ang):
   XX=             -3.9101   YY=             -6.8017   ZZ=             -7.8376
   XY=             -0.1863   XZ=             -0.0000   YZ=              0.0000

 Normal termination of Gaussian 16 at Wed Mar 29 21:53:34 2023.
