 Gaussian 16, Revision C.01,
 Gaussian 16:  ES64L-G16RevC.01  3-Jul-2019

 ------------------------------
 #P HF/6-31g* scf(maxcycle=200)
 ------------------------------

 --------------
 Gaussian input
 --------------
 Symbolic Z-matrix:
 Charge =  0 Multiplicity = 1

                         Standard orientation:
 ---------------------------------------------------------------------
 Center     Atomic      Atomic             Coordinates (Angstroms)
 Number     Number       Type             X           Y           Z
 ---------------------------------------------------------------------
      1          8           0        0.000000    0.000000    0.108839
      2          1           0        0.000000    0.728102   -0.435356
      3          1           0       -0.000000   -0.728102   -0.435356
 ---------------------------------------------------------------------

 SCF Done:  E(RHF) =  -76.0073148152     A.U. after   10 cycles

 The electronic state is 1-A1.
 Alpha  occ. eigenvalues --  -20.54979  -1.36664  -0.73833  -0.57589  -0.50093
 Alpha virt. eigenvalues --    0.22101   0.31633   1.05385   1.13673   1.16797
 Alpha virt. eigenvalues --    1.22217   1.40193   1.43208   2.01384   2.02009
 Alpha virt. eigenvalues --    2.06153   2.68681   3.03518   4.00043

 Mulliken charges:
               1
     1  O   -0.868386
     2  H    0.434193
     3  H    0.434193
 Sum of Mulliken charges =   0.00000

 Dipole moment (field-independent basis, Debye):
    X=             -0.0000    Y=             -0.0000    Z=             -2.1450  Tot=              2.1450
 Quadrupole moment (field-independent basis, Debye-Ang):
   XX=             -7.1240   YY=             -4.1419   ZZ=             -6.0065
   XY=              0.0000   XZ=              0.0000   YZ=              0.0000

 Normal termination of Gaussian 16 at Wed Feb  8 15:04:50 2023.
