 Gaussian 16, Revision C.01,
 Gaussian 16:  ES64L-G16RevC.01  3-Jul-2019

 -----------------------------------
 #P HF/aug-cc-pVDZ scf(maxcycle=200)
 -----------------------------------

 --------------
 Gaussian input
 --------------
 Symbolic Z-matrix:
 Charge =  0 Multiplicity = 1

                         Standard orientation:
 ---------------------------------------------------------------------
 Center     Atomic      Atomic             Coordinates (Angstroms)
 Number     Number       Type             X           Y           Z
 ---------------------------------------------------------------------
      1          8           0        0.000000   -0.000000    0.103829
      2          1           0        0.000000    0.806330   -0.415317
      3          1           0       -0.000000   -0.806330   -0.415317
 ---------------------------------------------------------------------

 SCF Done:  E(RHF) =  -76.0393099369     A.U. after   10 cycles

 The electronic state is 1-A1.
 Alpha  occ. eigenvalues --  -20.57273  -1.34888  -0.73646  -0.56597  -0.50630
 Alpha virt. eigenvalues --    0.03613   0.05704   0.17521   0.19565   0.22034
 Alpha virt. eigenvalues --    0.22824   0.29703   0.31684   0.38021   0.42402
 Alpha virt. eigenvalues --    0.44901   0.52857   0.65052   0.65543   0.83907

 Mulliken charges:
               1
     1  O   -0.328680
     2  H    0.164340
     3  H    0.164340
 Sum of Mulliken charges =  -0.00000

 Dipole moment (field-independent basis, Debye):
    X=             -0.0000    Y=              0.0000    Z=             -1.8290  Tot=              1.8290
 Quadrupole moment (field-independent basis, Debye-Ang):
   XX=             -7.6148   YY=             -3.8422   ZZ=             -6.5662
   XY=              0.0000   XZ=              0.0000   YZ=              0.0000

 Normal termination of Gaussian 16 at Mon Feb 20 10:16:12 2023.
