 Gaussian 16, Revision C.01,
 Gaussian 16:  ES64L-G16RevC.01  3-Jul-2019

 ----------------------------------------
 #P CCSD(T)/aug-cc-pVTZ scf(maxcycle=200)
 ----------------------------------------

 --------------
 Gaussian input
 --------------
 Symbolic Z-matrix:
 Charge =  0 Multiplicity = 1

                         Standard orientation:
 ---------------------------------------------------------------------
 Center     Atomic      Atomic             Coordinates (Angstroms)
 Number     Number       Type             X           Y           Z
 ---------------------------------------------------------------------
      1          8           0        0.000000    0.112321   -0.000000
      2          1           0        0.807194   -0.493087    0.000000
      3          1           0       -0.807194   -0.405481    0.000000
 ---------------------------------------------------------------------

 SCF Done:  E(RHF) =  -76.0556783155     A.U. after   10 cycles
 E2 =    -0.2701133553D+00 EUMP2 =    -0.76325791670785D+02
 CCSD(T)
 CCSD(T)= -0.76339173127D+02

 The electronic state is 1-A'.
 Alpha  occ. eigenvalues --  -20.56885  -1.33683  -0.71406  -0.56828  -0.50638
 Alpha virt. eigenvalues --    0.02940   0.04721   0.13655   0.15886   0.17229
 Alpha virt. eigenvalues --    0.18168   0.22709   0.24304   0.26282   0.30573
 Alpha virt. eigenvalues --    0.31370   0.36429   0.43026   0.46319   0.60200

 Mulliken charges:
               1
     1  O   -0.477655
     2  H    0.257644
     3  H    0.220012
 Sum of Mulliken charges =   0.00000

 Dipole moment (field-independent basis, Debye):
    X=             -0.0178    Y=             -1.9025    Z=              0.0000  Tot=              1.9025
 Quadrupole moment (field-independent basis, Debye-Ang):
   XX=             -3.9160   YY=             -6.4366   ZZ=             -7.6301
   XY=             -0.1630   XZ=              0.0000   YZ=              0.0000

 .3308082\CCSD=-76.3303053\CCSD(T)=-76.3391731\RMSD=4.625e-09\PG=CS [SG
 Normal termination of Gaussian 16 at Wed Feb  8 13:57:56 2023.
