 Gaussian 16, Revision C.01,
 Gaussian 16:  ES64L-G16RevC.01  3-Jul-2019

 ----------------------------------------
 #P CCSD(T)/aug-cc-pVTZ scf(maxcycle=200)
 ----------------------------------------

 --------------
 Gaussian input
 --------------
 Symbolic Z-matrix:
 Charge =  0 Multiplicity = 1

                         Standard orientation:
 ---------------------------------------------------------------------
 Center     Atomic      Atomic             Coordinates (Angstroms)
 Number     Number       Type             X           Y           Z
 ---------------------------------------------------------------------
      1          8           0        0.000000    0.000000    0.128046
      2          1           0        0.000000    0.645279   -0.512185
      3          1           0       -0.000000   -0.645279   -0.512185
 ---------------------------------------------------------------------

 SCF Done:  E(RHF) =  -76.0503656882     A.U. after    9 cycles
 E2 =    -0.2660015492D+00 EUMP2 =    -0.76316367237367D+02
 CCSD(T)
 CCSD(T)= -0.76329550501D+02

 The electronic state is 1-A1.
 Alpha  occ. eigenvalues --  -20.56334  -1.39286  -0.71235  -0.62304  -0.51828
 Alpha virt. eigenvalues --    0.02895   0.04871   0.13363   0.15849   0.17835
 Alpha virt. eigenvalues --    0.18606   0.22804   0.24962   0.27064   0.28977
 Alpha virt. eigenvalues --    0.30454   0.37229   0.44363   0.47617   0.59422

 Mulliken charges:
               1
     1  O   -0.367677
     2  H    0.183839
     3  H    0.183839
 Sum of Mulliken charges =   0.00000

 Dipole moment (field-independent basis, Debye):
    X=             -0.0000    Y=              0.0000    Z=             -2.1514  Tot=              2.1514
 Quadrupole moment (field-independent basis, Debye-Ang):
   XX=             -7.4285   YY=             -4.9191   ZZ=             -5.8063
   XY=              0.0000   XZ=              0.0000   YZ=             -0.0000

 321715\CCSD=-76.3212714\CCSD(T)=-76.3295505\RMSD=6.757e-09\PG=C02V [C2
 Normal termination of Gaussian 16 at Wed Feb  8 13:48:44 2023.
