 Gaussian 16, Revision C.01,
 Gaussian 16:  ES64L-G16RevC.01  3-Jul-2019

 ------------------------------
 #P HF/6-31g* scf(maxcycle=200)
 ------------------------------

 --------------
 Gaussian input
 --------------
 Symbolic Z-matrix:
 Charge =  0 Multiplicity = 1

                         Standard orientation:
 ---------------------------------------------------------------------
 Center     Atomic      Atomic             Coordinates (Angstroms)
 Number     Number       Type             X           Y           Z
 ---------------------------------------------------------------------
      1          8           0        0.000000    0.106951    0.000000
      2          1           0        0.792575   -0.517473   -0.000000
      3          1           0       -0.792575   -0.338139    0.000000
 ---------------------------------------------------------------------

 SCF Done:  E(RHF) =  -76.0037821631     A.U. after   10 cycles

 The electronic state is 1-A'.
 Alpha  occ. eigenvalues --  -20.55552  -1.33675  -0.72022  -0.55383  -0.49463
 Alpha virt. eigenvalues --    0.20848   0.30505   1.03819   1.12153   1.16749
 Alpha virt. eigenvalues --    1.17019   1.39009   1.41320   2.02747   2.04369
 Alpha virt. eigenvalues --    2.07774   2.61940   2.95991   3.98540

 Mulliken charges:
               1
     1  O   -0.879192
     2  H    0.437041
     3  H    0.442151
 Sum of Mulliken charges =  -0.00000

 Dipole moment (field-independent basis, Debye):
    X=             -0.0704    Y=             -2.0821    Z=             -0.0000  Tot=              2.0833
 Quadrupole moment (field-independent basis, Debye-Ang):
   XX=             -3.7911   YY=             -6.1506   ZZ=             -7.2285
   XY=             -0.3215   XZ=             -0.0000   YZ=             -0.0000

 Normal termination of Gaussian 16 at Wed Feb  8 15:06:53 2023.
