 Gaussian 16, Revision C.01,
 Gaussian 16:  ES64L-G16RevC.01  3-Jul-2019

 ----------------------------------------
 #P PBE1PBE/aug-cc-pVDZ scf(maxcycle=200)
 ----------------------------------------

 --------------
 Gaussian input
 --------------
 Symbolic Z-matrix:
 Charge =  0 Multiplicity = 1

                         Standard orientation:
 ---------------------------------------------------------------------
 Center     Atomic      Atomic             Coordinates (Angstroms)
 Number     Number       Type             X           Y           Z
 ---------------------------------------------------------------------
      1          8           0        0.000000    0.000000    0.097141
      2          1           0       -0.000000    0.884405   -0.388563
      3          1           0       -0.000000   -0.884405   -0.388563
 ---------------------------------------------------------------------

 SCF Done:  E(RPBE1PBE) =  -76.3478799035     A.U. after    8 cycles

 The electronic state is 1-A1.
 Alpha  occ. eigenvalues --  -19.22959  -1.01687  -0.55929  -0.37413  -0.32497
 Alpha virt. eigenvalues --   -0.01636   0.02849   0.10831   0.12923   0.13164
 Alpha virt. eigenvalues --    0.15414   0.19749   0.21327   0.27676   0.33384
 Alpha virt. eigenvalues --    0.35537   0.42275   0.49959   0.52159   0.67294

 Mulliken charges:
               1
     1  O   -0.380447
     2  H    0.190223
     3  H    0.190223
 Sum of Mulliken charges =  -0.00000

 Dipole moment (field-independent basis, Debye):
    X=             -0.0000    Y=              0.0000    Z=             -1.5848  Tot=              1.5848
 Quadrupole moment (field-independent basis, Debye-Ang):
   XX=             -7.9166   YY=             -3.5595   ZZ=             -7.0239
   XY=              0.0000   XZ=              0.0000   YZ=             -0.0000

 Normal termination of Gaussian 16 at Mon Mar 20 17:36:04 2023.
