 Gaussian 16, Revision C.01,
 Gaussian 16:  ES64L-G16RevC.01  3-Jul-2019

 ------------------------------------
 #P wB97XD/6-311g** scf(maxcycle=200)
 ------------------------------------

 --------------
 Gaussian input
 --------------
 Symbolic Z-matrix:
 Charge =  0 Multiplicity = 1

                         Standard orientation:
 ---------------------------------------------------------------------
 Center     Atomic      Atomic             Coordinates (Angstroms)
 Number     Number       Type             X           Y           Z
 ---------------------------------------------------------------------
      1          8           0        0.000000    0.139927    0.000000
      2          1           0        0.654215   -0.628242    0.000000
      3          1           0       -0.654215   -0.491170   -0.000000
 ---------------------------------------------------------------------

 SCF Done:  E(RwB97XD) =  -76.4100768644     A.U. after   12 cycles

 The electronic state is 1-A'.
 Alpha  occ. eigenvalues --  -19.23396  -1.12115  -0.57448  -0.49974  -0.39168
 Alpha virt. eigenvalues --    0.11031   0.19361   0.43618   0.54347   0.85201
 Alpha virt. eigenvalues --    0.85938   0.96024   1.13112   1.18243   1.41770
 Alpha virt. eigenvalues --    1.44404   1.86927   1.94703   2.19230   2.42829

 Mulliken charges:
               1
     1  O   -0.428299
     2  H    0.211964
     3  H    0.216335
 Sum of Mulliken charges =   0.00000

 Dipole moment (field-independent basis, Debye):
    X=             -0.0955    Y=             -2.3002    Z=             -0.0000  Tot=              2.3022
 Quadrupole moment (field-independent basis, Debye-Ang):
   XX=             -5.0099   YY=             -5.5316   ZZ=             -7.1551
   XY=             -0.1477   XZ=             -0.0000   YZ=             -0.0000

 Normal termination of Gaussian 16 at Wed Feb  8 14:42:12 2023.
