 Gaussian 16, Revision C.01,
 Gaussian 16:  ES64L-G16RevC.01  3-Jul-2019

 ----------------------------------------
 #P CCSD(T)/aug-cc-pVTZ scf(maxcycle=200)
 ----------------------------------------

 --------------
 Gaussian input
 --------------
 Symbolic Z-matrix:
 Charge =  0 Multiplicity = 1

                         Standard orientation:
 ---------------------------------------------------------------------
 Center     Atomic      Atomic             Coordinates (Angstroms)
 Number     Number       Type             X           Y           Z
 ---------------------------------------------------------------------
      1          8           0        0.000000   -0.000000    0.144611
      2          1           0       -0.000000    0.703755   -0.578445
      3          1           0       -0.000000   -0.703755   -0.578445
 ---------------------------------------------------------------------

 SCF Done:  E(RHF) =  -76.0458799811     A.U. after   10 cycles
 E2 =    -0.2746128983D+00 EUMP2 =    -0.76320492879402D+02
 CCSD(T)
 CCSD(T)= -0.76333648973D+02

 The electronic state is 1-A1.
 Alpha  occ. eigenvalues --  -20.58271  -1.33977  -0.65945  -0.60616  -0.51116
 Alpha virt. eigenvalues --    0.02750   0.04852   0.13251   0.16315   0.17599
 Alpha virt. eigenvalues --    0.18698   0.21673   0.24507   0.27128   0.28263
 Alpha virt. eigenvalues --    0.30171   0.36675   0.42419   0.45198   0.58883

 Mulliken charges:
               1
     1  O   -0.509222
     2  H    0.254611
     3  H    0.254611
 Sum of Mulliken charges =  -0.00000

 Dipole moment (field-independent basis, Debye):
    X=             -0.0000    Y=              0.0000    Z=             -2.2776  Tot=              2.2776
 Quadrupole moment (field-independent basis, Debye-Ang):
   XX=             -7.6524   YY=             -4.9044   ZZ=             -5.7386
   XY=              0.0000   XZ=              0.0000   YZ=             -0.0000

 248599\CCSD=-76.3242888\CCSD(T)=-76.333649\RMSD=5.377e-09\PG=C02V [C2(
 Normal termination of Gaussian 16 at Wed Feb  8 13:58:16 2023.
