 Gaussian 16, Revision C.01,
 Gaussian 16:  ES64L-G16RevC.01  3-Jul-2019

 ----------------------------------------
 #P CCSD(T)/aug-cc-pVDZ scf(maxcycle=200)
 ----------------------------------------

 --------------
 Gaussian input
 --------------
 Symbolic Z-matrix:
 Charge =  0 Multiplicity = 1

                         Standard orientation:
 ---------------------------------------------------------------------
 Center     Atomic      Atomic             Coordinates (Angstroms)
 Number     Number       Type             X           Y           Z
 ---------------------------------------------------------------------
      1          8           0        0.000000   -0.000000    0.129106
      2          1           0       -0.000000    0.775480   -0.516426
      3          1           0       -0.000000   -0.775480   -0.516426
 ---------------------------------------------------------------------

 SCF Done:  E(RHF) =  -76.0334483311     A.U. after   10 cycles
 E2 =    -0.2243063972D+00 EUMP2 =    -0.76257754728293D+02
 CCSD(T)
 CCSD(T)= -0.76270836393D+02

 The electronic state is 1-A1.
 Alpha  occ. eigenvalues --  -20.58758  -1.33420  -0.68450  -0.58351  -0.50674
 Alpha virt. eigenvalues --    0.03412   0.05799   0.17448   0.19955   0.21894
 Alpha virt. eigenvalues --    0.23433   0.27334   0.33127   0.38434   0.38883
 Alpha virt. eigenvalues --    0.42019   0.53558   0.63325   0.65318   0.78271

 Mulliken charges:
               1
     1  O   -0.400547
     2  H    0.200274
     3  H    0.200274
 Sum of Mulliken charges =   0.00000

 Dipole moment (field-independent basis, Debye):
    X=             -0.0000    Y=             -0.0000    Z=             -2.1055  Tot=              2.1055
 Quadrupole moment (field-independent basis, Debye-Ang):
   XX=             -7.7020   YY=             -4.3501   ZZ=             -6.1548
   XY=              0.0000   XZ=              0.0000   YZ=              0.0000

 .265414\CCSD=-76.2651985\CCSD(T)=-76.2708364\RMSD=8.398e-09\PG=C02V [C
 Normal termination of Gaussian 16 at Wed Feb  8 14:51:10 2023.
