 Gaussian 16, Revision C.01,
 Gaussian 16:  ES64L-G16RevC.01  3-Jul-2019

 ----------------------------------------
 #P CCSD(T)/aug-cc-pVDZ scf(maxcycle=200)
 ----------------------------------------

 --------------
 Gaussian input
 --------------
 Symbolic Z-matrix:
 Charge =  0 Multiplicity = 1

                         Standard orientation:
 ---------------------------------------------------------------------
 Center     Atomic      Atomic             Coordinates (Angstroms)
 Number     Number       Type             X           Y           Z
 ---------------------------------------------------------------------
      1          8           0        0.000000    0.122056    0.000000
      2          1           0        0.706453   -0.449963    0.000000
      3          1           0       -0.706453   -0.526485    0.000000
 ---------------------------------------------------------------------

 SCF Done:  E(RHF) =  -76.0384340867     A.U. after   10 cycles
 E2 =    -0.2177527221D+00 EUMP2 =    -0.76256186808757D+02
 CCSD(T)
 CCSD(T)= -0.76269097072D+02

 The electronic state is 1-A'.
 Alpha  occ. eigenvalues --  -20.57561  -1.37453  -0.71948  -0.60209  -0.51313
 Alpha virt. eigenvalues --    0.03523   0.05857   0.17252   0.19624   0.22432
 Alpha virt. eigenvalues --    0.23246   0.29409   0.34464   0.39062   0.39647
 Alpha virt. eigenvalues --    0.42906   0.54854   0.64943   0.66121   0.80991

 Mulliken charges:
               1
     1  O   -0.236802
     2  H    0.091456
     3  H    0.145346
 Sum of Mulliken charges =   0.00000

 Dipole moment (field-independent basis, Debye):
    X=              0.0270    Y=             -2.0744    Z=              0.0000  Tot=              2.0746
 Quadrupole moment (field-independent basis, Debye-Ang):
   XX=             -4.5913   YY=             -6.0649   ZZ=             -7.5214
   XY=              0.1173   XZ=              0.0000   YZ=              0.0000

 .2642097\CCSD=-76.2640155\CCSD(T)=-76.2690971\RMSD=5.819e-09\PG=CS [SG
 Normal termination of Gaussian 16 at Wed Feb  8 14:47:33 2023.
