 Gaussian 16, Revision C.01,
 Gaussian 16:  ES64L-G16RevC.01  3-Jul-2019

 ------------------------------------
 #P wB97XD/6-311g** scf(maxcycle=200)
 ------------------------------------

 --------------
 Gaussian input
 --------------
 Symbolic Z-matrix:
 Charge =  0 Multiplicity = 1

                         Standard orientation:
 ---------------------------------------------------------------------
 Center     Atomic      Atomic             Coordinates (Angstroms)
 Number     Number       Type             X           Y           Z
 ---------------------------------------------------------------------
      1          8           0        0.000000    0.000000    0.137445
      2          1           0        0.000000    0.668881   -0.549780
      3          1           0       -0.000000   -0.668881   -0.549780
 ---------------------------------------------------------------------

 SCF Done:  E(RwB97XD) =  -76.4168744562     A.U. after   12 cycles

 The electronic state is 1-A1.
 Alpha  occ. eigenvalues --  -19.23360  -1.11710  -0.57859  -0.49578  -0.39093
 Alpha virt. eigenvalues --    0.11363   0.19260   0.44498   0.53368   0.85273
 Alpha virt. eigenvalues --    0.85905   0.95990   1.14106   1.17698   1.41297
 Alpha virt. eigenvalues --    1.44988   1.85982   1.96809   2.17808   2.40638

 Mulliken charges:
               1
     1  O   -0.432264
     2  H    0.216132
     3  H    0.216132
 Sum of Mulliken charges =   0.00000

 Dipole moment (field-independent basis, Debye):
    X=             -0.0000    Y=              0.0000    Z=             -2.2822  Tot=              2.2822
 Quadrupole moment (field-independent basis, Debye-Ang):
   XX=             -7.1581   YY=             -4.9159   ZZ=             -5.6016
   XY=              0.0000   XZ=              0.0000   YZ=             -0.0000

 Normal termination of Gaussian 16 at Wed Feb  8 14:41:16 2023.
