 Gaussian 16, Revision C.01,
 Gaussian 16:  ES64L-G16RevC.01  3-Jul-2019

 ----------------------------------------
 #P CCSD(T)/aug-cc-pVDZ scf(maxcycle=200)
 ----------------------------------------

 --------------
 Gaussian input
 --------------
 Symbolic Z-matrix:
 Charge =  0 Multiplicity = 1

                         Standard orientation:
 ---------------------------------------------------------------------
 Center     Atomic      Atomic             Coordinates (Angstroms)
 Number     Number       Type             X           Y           Z
 ---------------------------------------------------------------------
      1          8           0       -0.000000   -0.000000    0.093021
      2          1           0        0.000000    0.780998   -0.372085
      3          1           0       -0.000000   -0.780998   -0.372085
 ---------------------------------------------------------------------

 SCF Done:  E(RHF) =  -76.0358756211     A.U. after   10 cycles
 E2 =    -0.2148883258D+00 EUMP2 =    -0.76250763946889D+02
 CCSD(T)
 CCSD(T)= -0.76263595987D+02

 The electronic state is 1-A1.
 Alpha  occ. eigenvalues --  -20.56256  -1.37279  -0.77406  -0.56735  -0.51005
 Alpha virt. eigenvalues --    0.03722   0.05697   0.17421   0.19236   0.22343
 Alpha virt. eigenvalues --    0.22566   0.31303   0.31888   0.38215   0.43988
 Alpha virt. eigenvalues --    0.46324   0.53206   0.65412   0.66497   0.88093

 Mulliken charges:
               1
     1  O   -0.224706
     2  H    0.112353
     3  H    0.112353
 Sum of Mulliken charges =  -0.00000

 Dipole moment (field-independent basis, Debye):
    X=             -0.0000    Y=             -0.0000    Z=             -1.7212  Tot=              1.7212
 Quadrupole moment (field-independent basis, Debye-Ang):
   XX=             -7.4988   YY=             -3.8475   ZZ=             -6.6210
   XY=              0.0000   XZ=              0.0000   YZ=              0.0000

 .2589611\CCSD=-76.2587644\CCSD(T)=-76.263596\RMSD=2.652e-09\PG=C02V [C
 Normal termination of Gaussian 16 at Wed Feb  8 14:47:29 2023.
