 Gaussian 16, Revision C.01,
 Gaussian 16:  ES64L-G16RevC.01  3-Jul-2019

 ---------------------------------
 #P B3LYP/6-31g* scf(maxcycle=200)
 ---------------------------------

 --------------
 Gaussian input
 --------------
 Symbolic Z-matrix:
 Charge =  0 Multiplicity = 1

                         Standard orientation:
 ---------------------------------------------------------------------
 Center     Atomic      Atomic             Coordinates (Angstroms)
 Number     Number       Type             X           Y           Z
 ---------------------------------------------------------------------
      1          8           0        0.000000   -0.000000    0.115098
      2          1           0       -0.000000    0.828791   -0.460391
      3          1           0       -0.000000   -0.828791   -0.460391
 ---------------------------------------------------------------------

 SCF Done:  E(RB3LYP) =  -76.4045679408     A.U. after    9 cycles

 The electronic state is 1-A1.
 Alpha  occ. eigenvalues --  -19.14100  -0.97601  -0.51270  -0.35573  -0.28598
 Alpha virt. eigenvalues --    0.05063   0.13582   0.78015   0.79695   0.89289
 Alpha virt. eigenvalues --    0.89434   1.06751   1.16203   1.75067   1.75750
 Alpha virt. eigenvalues --    1.79358   2.24439   2.50770   3.54235

 Mulliken charges:
               1
     1  O   -0.775406
     2  H    0.387703
     3  H    0.387703
 Sum of Mulliken charges =   0.00000

 Dipole moment (field-independent basis, Debye):
    X=             -0.0000    Y=             -0.0000    Z=             -1.9968  Tot=              1.9968
 Quadrupole moment (field-independent basis, Debye-Ang):
   XX=             -7.2803   YY=             -3.9093   ZZ=             -6.1822
   XY=              0.0000   XZ=              0.0000   YZ=              0.0000

 Normal termination of Gaussian 16 at Wed Feb  8 14:52:34 2023.
