 Gaussian 16, Revision C.01,
 Gaussian 16:  ES64L-G16RevC.01  3-Jul-2019

 ----------------------------------------
 #P CCSD(T)/aug-cc-pVTZ scf(maxcycle=200)
 ----------------------------------------

 --------------
 Gaussian input
 --------------
 Symbolic Z-matrix:
 Charge =  0 Multiplicity = 1

                         Standard orientation:
 ---------------------------------------------------------------------
 Center     Atomic      Atomic             Coordinates (Angstroms)
 Number     Number       Type             X           Y           Z
 ---------------------------------------------------------------------
      1          8           0        0.000000    0.098513    0.000000
      2          1           0        0.818586   -0.296706    0.000000
      3          1           0       -0.818586   -0.491400    0.000000
 ---------------------------------------------------------------------

 SCF Done:  E(RHF) =  -76.0515091993     A.U. after   10 cycles
 E2 =    -0.2679187890D+00 EUMP2 =    -0.76319427988329D+02
 CCSD(T)
 CCSD(T)= -0.76332760479D+02

 The electronic state is 1-A'.
 Alpha  occ. eigenvalues --  -20.56021  -1.34569  -0.74159  -0.55749  -0.50602
 Alpha virt. eigenvalues --    0.03003   0.04690   0.13738   0.15600   0.16988
 Alpha virt. eigenvalues --    0.18039   0.23127   0.24288   0.26041   0.31614
 Alpha virt. eigenvalues --    0.32167   0.36381   0.43007   0.46995   0.60950

 Mulliken charges:
               1
     1  O   -0.435942
     2  H    0.172285
     3  H    0.263657
 Sum of Mulliken charges =  -0.00000

 Dipole moment (field-independent basis, Debye):
    X=              0.0238    Y=             -1.7422    Z=              0.0000  Tot=              1.7423
 Quadrupole moment (field-independent basis, Debye-Ang):
   XX=             -3.6756   YY=             -6.6104   ZZ=             -7.5878
   XY=              0.3927   XZ=              0.0000   YZ=              0.0000

 3246271\CCSD=-76.3241538\CCSD(T)=-76.3327605\RMSD=3.887e-09\PG=CS [SG(
 Normal termination of Gaussian 16 at Wed Feb  8 13:50:52 2023.
