 Gaussian 16, Revision C.01,
 Gaussian 16:  ES64L-G16RevC.01  3-Jul-2019

 ------------------------------
 #P HF/6-31g* scf(maxcycle=200)
 ------------------------------

 --------------
 Gaussian input
 --------------
 Symbolic Z-matrix:
 Charge =  0 Multiplicity = 1

                         Standard orientation:
 ---------------------------------------------------------------------
 Center     Atomic      Atomic             Coordinates (Angstroms)
 Number     Number       Type             X           Y           Z
 ---------------------------------------------------------------------
      1          8           0        0.000000    0.122056   -0.000000
      2          1           0        0.706453   -0.526485    0.000000
      3          1           0       -0.706453   -0.449963   -0.000000
 ---------------------------------------------------------------------

 SCF Done:  E(RHF) =  -76.0071470257     A.U. after   10 cycles

 The electronic state is 1-A'.
 Alpha  occ. eigenvalues --  -20.55886  -1.36063  -0.70772  -0.58785  -0.50201
 Alpha virt. eigenvalues --    0.21335   0.31021   1.00506   1.13354   1.16610
 Alpha virt. eigenvalues --    1.22691   1.38757   1.45867   1.99680   2.03302
 Alpha virt. eigenvalues --    2.05660   2.65232   2.97701   3.97067

 Mulliken charges:
               1
     1  O   -0.855363
     2  H    0.425767
     3  H    0.429596
 Sum of Mulliken charges =  -0.00000

 Dipole moment (field-independent basis, Debye):
    X=             -0.0430    Y=             -2.3058    Z=              0.0000  Tot=              2.3062
 Quadrupole moment (field-independent basis, Debye-Ang):
   XX=             -4.4509   YY=             -5.8016   ZZ=             -7.1786
   XY=             -0.1075   XZ=             -0.0000   YZ=              0.0000

 Normal termination of Gaussian 16 at Wed Feb  8 15:05:50 2023.
