 Gaussian 16, Revision C.01,
 Gaussian 16:  ES64L-G16RevC.01  3-Jul-2019

 -----------------------------------
 #P HF/aug-cc-pVDZ scf(maxcycle=200)
 -----------------------------------

 --------------
 Gaussian input
 --------------
 Symbolic Z-matrix:
 Charge =  0 Multiplicity = 1

                         Standard orientation:
 ---------------------------------------------------------------------
 Center     Atomic      Atomic             Coordinates (Angstroms)
 Number     Number       Type             X           Y           Z
 ---------------------------------------------------------------------
      1          8           0       -0.000000   -0.000000    0.116311
      2          1           0        0.000000    0.698624   -0.465244
      3          1           0       -0.000000   -0.698624   -0.465244
 ---------------------------------------------------------------------

 SCF Done:  E(RHF) =  -76.0377272071     A.U. after   10 cycles

 The electronic state is 1-A1.
 Alpha  occ. eigenvalues --  -20.57036  -1.38662  -0.73761  -0.60314  -0.51480
 Alpha virt. eigenvalues --    0.03582   0.05849   0.17215   0.19477   0.22576
 Alpha virt. eigenvalues --    0.23100   0.30263   0.34471   0.39156   0.40386
 Alpha virt. eigenvalues --    0.43546   0.55023   0.65827   0.65852   0.82981

 Mulliken charges:
               1
     1  O   -0.182476
     2  H    0.091238
     3  H    0.091238
 Sum of Mulliken charges =   0.00000

 Dipole moment (field-independent basis, Debye):
    X=             -0.0000    Y=             -0.0000    Z=             -2.0216  Tot=              2.0216
 Quadrupole moment (field-independent basis, Debye-Ang):
   XX=             -7.4639   YY=             -4.5495   ZZ=             -6.1183
   XY=              0.0000   XZ=              0.0000   YZ=              0.0000

 Normal termination of Gaussian 16 at Mon Feb 20 10:14:39 2023.
