 Gaussian 16, Revision C.01,
 Gaussian 16:  ES64L-G16RevC.01  3-Jul-2019

 ----------------------------------------
 #P CCSD(T)/aug-cc-pVTZ scf(maxcycle=200)
 ----------------------------------------

 --------------
 Gaussian input
 --------------
 Symbolic Z-matrix:
 Charge =  0 Multiplicity = 1

                         Standard orientation:
 ---------------------------------------------------------------------
 Center     Atomic      Atomic             Coordinates (Angstroms)
 Number     Number       Type             X           Y           Z
 ---------------------------------------------------------------------
      1          8           0       -0.000000    0.000000    0.135089
      2          1           0        0.000000    0.680773   -0.540358
      3          1           0       -0.000000   -0.680773   -0.540358
 ---------------------------------------------------------------------

 SCF Done:  E(RHF) =  -76.0539925419     A.U. after   10 cycles
 E2 =    -0.2700680758D+00 EUMP2 =    -0.76324060617765D+02
 CCSD(T)
 CCSD(T)= -0.76337238325D+02

 The electronic state is 1-A1.
 Alpha  occ. eigenvalues --  -20.57305  -1.36374  -0.68713  -0.61273  -0.51412
 Alpha virt. eigenvalues --    0.02837   0.04857   0.13345   0.16079   0.17732
 Alpha virt. eigenvalues --    0.18655   0.22301   0.24698   0.27051   0.28686
 Alpha virt. eigenvalues --    0.30346   0.36922   0.43443   0.46543   0.59121

 Mulliken charges:
               1
     1  O   -0.448633
     2  H    0.224317
     3  H    0.224317
 Sum of Mulliken charges =  -0.00000

 Dipole moment (field-independent basis, Debye):
    X=             -0.0000    Y=             -0.0000    Z=             -2.2011  Tot=              2.2011
 Quadrupole moment (field-independent basis, Debye-Ang):
   XX=             -7.5438   YY=             -4.8674   ZZ=             -5.8102
   XY=              0.0000   XZ=              0.0000   YZ=              0.0000

 .3289514\CCSD=-76.3284503\CCSD(T)=-76.3372383\RMSD=3.543e-09\PG=C02V [
 Normal termination of Gaussian 16 at Wed Feb  8 13:52:16 2023.
