 Gaussian 16, Revision C.01,
 Gaussian 16:  ES64L-G16RevC.01  3-Jul-2019

 ----------------------------------------
 #P CCSD(T)/aug-cc-pVDZ scf(maxcycle=200)
 ----------------------------------------

 --------------
 Gaussian input
 --------------
 Symbolic Z-matrix:
 Charge =  0 Multiplicity = 1

                         Standard orientation:
 ---------------------------------------------------------------------
 Center     Atomic      Atomic             Coordinates (Angstroms)
 Number     Number       Type             X           Y           Z
 ---------------------------------------------------------------------
      1          8           0        0.000000    0.101356    0.000000
      2          1           0        0.810186   -0.310808    0.000000
      3          1           0       -0.810186   -0.500041    0.000000
 ---------------------------------------------------------------------

 SCF Done:  E(RHF) =  -76.0331764090     A.U. after   10 cycles
 E2 =    -0.2190550980D+00 EUMP2 =    -0.76252231507047D+02
 CCSD(T)
 CCSD(T)= -0.76265232614D+02

 The electronic state is 1-A'.
 Alpha  occ. eigenvalues --  -20.57111  -1.35002  -0.74017  -0.56163  -0.50584
 Alpha virt. eigenvalues --    0.03609   0.05689   0.17522   0.19529   0.21793
 Alpha virt. eigenvalues --    0.22786   0.29428   0.31885   0.37857   0.42866
 Alpha virt. eigenvalues --    0.45313   0.52673   0.63895   0.66319   0.83979

 Mulliken charges:
               1
     1  O   -0.333091
     2  H    0.106761
     3  H    0.226330
 Sum of Mulliken charges =  -0.00000

 Dipole moment (field-independent basis, Debye):
    X=              0.0299    Y=             -1.7971    Z=              0.0000  Tot=              1.7974
 Quadrupole moment (field-independent basis, Debye-Ang):
   XX=             -3.7911   YY=             -6.5779   ZZ=             -7.6169
   XY=              0.3770   XZ=              0.0000   YZ=              0.0000

 2602472\CCSD=-76.2600438\CCSD(T)=-76.2652326\RMSD=7.896e-09\PG=CS [SG(
 Normal termination of Gaussian 16 at Wed Feb  8 14:48:14 2023.
