 Gaussian 16, Revision C.01,
 Gaussian 16:  ES64L-G16RevC.01  3-Jul-2019

 ------------------------------------
 #P wB97XD/6-311g** scf(maxcycle=200)
 ------------------------------------

 --------------
 Gaussian input
 --------------
 Symbolic Z-matrix:
 Charge =  0 Multiplicity = 1

                         Standard orientation:
 ---------------------------------------------------------------------
 Center     Atomic      Atomic             Coordinates (Angstroms)
 Number     Number       Type             X           Y           Z
 ---------------------------------------------------------------------
      1          8           0        0.000000    0.000000    0.112127
      2          1           0       -0.000000    0.778055   -0.448508
      3          1           0       -0.000000   -0.778055   -0.448508
 ---------------------------------------------------------------------

 SCF Done:  E(RwB97XD) =  -76.4228889705     A.U. after   12 cycles

 The electronic state is 1-A1.
 Alpha  occ. eigenvalues --  -19.22383  -1.09955  -0.61691  -0.45483  -0.38515
 Alpha virt. eigenvalues --    0.11988   0.19238   0.47300   0.49718   0.85050
 Alpha virt. eigenvalues --    0.85577   0.94985   1.15250   1.33880   1.39382
 Alpha virt. eigenvalues --    1.56878   1.71769   2.03968   2.13443   2.40055

 Mulliken charges:
               1
     1  O   -0.502031
     2  H    0.251016
     3  H    0.251016
 Sum of Mulliken charges =  -0.00000

 Dipole moment (field-independent basis, Debye):
    X=             -0.0000    Y=              0.0000    Z=             -2.0399  Tot=              2.0399
 Quadrupole moment (field-independent basis, Debye-Ang):
   XX=             -7.1750   YY=             -4.0449   ZZ=             -6.1352
   XY=              0.0000   XZ=              0.0000   YZ=             -0.0000

 Normal termination of Gaussian 16 at Wed Feb  8 14:41:26 2023.
