 Gaussian 16, Revision C.01,
 Gaussian 16:  ES64L-G16RevC.01  3-Jul-2019

 ----------------------------------------
 #P PBE1PBE/aug-cc-pVDZ scf(maxcycle=200)
 ----------------------------------------

 --------------
 Gaussian input
 --------------
 Symbolic Z-matrix:
 Charge =  0 Multiplicity = 1

                         Standard orientation:
 ---------------------------------------------------------------------
 Center     Atomic      Atomic             Coordinates (Angstroms)
 Number     Number       Type             X           Y           Z
 ---------------------------------------------------------------------
      1          8           0        0.000000   -0.000000    0.098416
      2          1           0        0.000000    0.764290   -0.393663
      3          1           0       -0.000000   -0.764290   -0.393663
 ---------------------------------------------------------------------

 SCF Done:  E(RPBE1PBE) =  -76.3525970209     A.U. after    8 cycles

 The electronic state is 1-A1.
 Alpha  occ. eigenvalues --  -19.21877  -1.06420  -0.59119  -0.39770  -0.33580
 Alpha virt. eigenvalues --   -0.00727   0.03378   0.11518   0.12958   0.14674
 Alpha virt. eigenvalues --    0.16836   0.21020   0.23171   0.29078   0.33212
 Alpha virt. eigenvalues --    0.35649   0.45126   0.53663   0.54671   0.68130

 Mulliken charges:
               1
     1  O   -0.132054
     2  H    0.066027
     3  H    0.066027
 Sum of Mulliken charges =  -0.00000

 Dipole moment (field-independent basis, Debye):
    X=             -0.0000    Y=              0.0000    Z=             -1.6891  Tot=              1.6891
 Quadrupole moment (field-independent basis, Debye-Ang):
   XX=             -7.6418   YY=             -4.1982   ZZ=             -6.6675
   XY=              0.0000   XZ=              0.0000   YZ=             -0.0000

 Normal termination of Gaussian 16 at Mon Mar 20 17:33:07 2023.
