 Gaussian 16, Revision C.01,
 Gaussian 16:  ES64L-G16RevC.01  3-Jul-2019

 ----------------------------------------
 #P PBE1PBE/aug-cc-pVDZ scf(maxcycle=200)
 ----------------------------------------

 --------------
 Gaussian input
 --------------
 Symbolic Z-matrix:
 Charge =  0 Multiplicity = 1

                         Standard orientation:
 ---------------------------------------------------------------------
 Center     Atomic      Atomic             Coordinates (Angstroms)
 Number     Number       Type             X           Y           Z
 ---------------------------------------------------------------------
      1          8           0       -0.000000    0.000000    0.123464
      2          1           0        0.000000    0.667230   -0.493857
      3          1           0       -0.000000   -0.667230   -0.493857
 ---------------------------------------------------------------------

 SCF Done:  E(RPBE1PBE) =  -76.3499748960     A.U. after    8 cycles

 The electronic state is 1-A1.
 Alpha  occ. eigenvalues --  -19.22576  -1.08061  -0.55096  -0.43530  -0.33942
 Alpha virt. eigenvalues --   -0.00988   0.03570   0.11221   0.13160   0.15127
 Alpha virt. eigenvalues --    0.17524   0.19553   0.26053   0.29556   0.30188
 Alpha virt. eigenvalues --    0.32764   0.47144   0.52837   0.55510   0.63307

 Mulliken charges:
               1
     1  O   -0.106516
     2  H    0.053258
     3  H    0.053258
 Sum of Mulliken charges =   0.00000

 Dipole moment (field-independent basis, Debye):
    X=             -0.0000    Y=             -0.0000    Z=             -1.9775  Tot=              1.9775
 Quadrupole moment (field-independent basis, Debye-Ang):
   XX=             -7.6028   YY=             -4.9514   ZZ=             -6.1184
   XY=              0.0000   XZ=              0.0000   YZ=              0.0000

 Normal termination of Gaussian 16 at Mon Mar 20 17:32:58 2023.
