 Gaussian 16, Revision C.01,
 Gaussian 16:  ES64L-G16RevC.01  3-Jul-2019

 ------------------------------------
 #P wB97XD/6-311g** scf(maxcycle=200)
 ------------------------------------

 --------------
 Gaussian input
 --------------
 Symbolic Z-matrix:
 Charge =  0 Multiplicity = 1

                         Standard orientation:
 ---------------------------------------------------------------------
 Center     Atomic      Atomic             Coordinates (Angstroms)
 Number     Number       Type             X           Y           Z
 ---------------------------------------------------------------------
      1          8           0        0.000000    0.000000    0.128046
      2          1           0        0.000000    0.645279   -0.512185
      3          1           0       -0.000000   -0.645279   -0.512185
 ---------------------------------------------------------------------

 SCF Done:  E(RwB97XD) =  -76.4115948495     A.U. after   12 cycles

 The electronic state is 1-A1.
 Alpha  occ. eigenvalues --  -19.22358  -1.14008  -0.60056  -0.49587  -0.39443
 Alpha virt. eigenvalues --    0.12370   0.20324   0.47143   0.56530   0.85223
 Alpha virt. eigenvalues --    0.85246   0.96678   1.15588   1.17169   1.41861
 Alpha virt. eigenvalues --    1.46808   1.89021   2.02592   2.23447   2.43468

 Mulliken charges:
               1
     1  O   -0.436173
     2  H    0.218087
     3  H    0.218087
 Sum of Mulliken charges =   0.00000

 Dipole moment (field-independent basis, Debye):
    X=             -0.0000    Y=              0.0000    Z=             -2.2292  Tot=              2.2292
 Quadrupole moment (field-independent basis, Debye-Ang):
   XX=             -7.0498   YY=             -4.8661   ZZ=             -5.6548
   XY=              0.0000   XZ=              0.0000   YZ=             -0.0000

 Normal termination of Gaussian 16 at Wed Feb  8 14:39:40 2023.
