 Gaussian 16, Revision C.01,
 Gaussian 16:  ES64L-G16RevC.01  3-Jul-2019

 -----------------------------------
 #P HF/aug-cc-pVDZ scf(maxcycle=200)
 -----------------------------------

 --------------
 Gaussian input
 --------------
 Symbolic Z-matrix:
 Charge =  0 Multiplicity = 1

                         Standard orientation:
 ---------------------------------------------------------------------
 Center     Atomic      Atomic             Coordinates (Angstroms)
 Number     Number       Type             X           Y           Z
 ---------------------------------------------------------------------
      1          8           0        0.000000    0.098513    0.000000
      2          1           0        0.818586   -0.296706    0.000000
      3          1           0       -0.818586   -0.491400    0.000000
 ---------------------------------------------------------------------

 SCF Done:  E(RHF) =  -76.0320494021     A.U. after   10 cycles

 The electronic state is 1-A'.
 Alpha  occ. eigenvalues --  -20.57003  -1.34872  -0.74331  -0.55790  -0.50519
 Alpha virt. eigenvalues --    0.03620   0.05672   0.17548   0.19509   0.21717
 Alpha virt. eigenvalues --    0.22723   0.29502   0.31716   0.37757   0.43293
 Alpha virt. eigenvalues --    0.45638   0.52450   0.63870   0.66306   0.84323

 Mulliken charges:
               1
     1  O   -0.340400
     2  H    0.109912
     3  H    0.230489
 Sum of Mulliken charges =   0.00000

 Dipole moment (field-independent basis, Debye):
    X=              0.0268    Y=             -1.7600    Z=              0.0000  Tot=              1.7602
 Quadrupole moment (field-independent basis, Debye-Ang):
   XX=             -3.7092   YY=             -6.6336   ZZ=             -7.6218
   XY=              0.3972   XZ=              0.0000   YZ=              0.0000

 Normal termination of Gaussian 16 at Mon Feb 20 10:27:34 2023.
