 Gaussian 16, Revision C.01,
 Gaussian 16:  ES64L-G16RevC.01  3-Jul-2019

 ----------------------------------------
 #P PBE1PBE/aug-cc-pVDZ scf(maxcycle=200)
 ----------------------------------------

 --------------
 Gaussian input
 --------------
 Symbolic Z-matrix:
 Charge =  0 Multiplicity = 1

                         Standard orientation:
 ---------------------------------------------------------------------
 Center     Atomic      Atomic             Coordinates (Angstroms)
 Number     Number       Type             X           Y           Z
 ---------------------------------------------------------------------
      1          8           0        0.000000    0.117755    0.000000
      2          1           0        0.754250   -0.389580    0.000000
      3          1           0       -0.754250   -0.552460    0.000000
 ---------------------------------------------------------------------

 SCF Done:  E(RPBE1PBE) =  -76.3547959836     A.U. after    9 cycles

 The electronic state is 1-A'.
 Alpha  occ. eigenvalues --  -19.23002  -1.05028  -0.55172  -0.41115  -0.33325
 Alpha virt. eigenvalues --   -0.01267   0.03261   0.11130   0.13168   0.14070
 Alpha virt. eigenvalues --    0.16732   0.19166   0.23964   0.29059   0.30557
 Alpha virt. eigenvalues --    0.33520   0.45358   0.50699   0.54786   0.64191

 Mulliken charges:
               1
     1  O   -0.220526
     2  H    0.058290
     3  H    0.162236
 Sum of Mulliken charges =   0.00000

 Dipole moment (field-independent basis, Debye):
    X=              0.0476    Y=             -1.8700    Z=              0.0000  Tot=              1.8706
 Quadrupole moment (field-independent basis, Debye-Ang):
   XX=             -4.4912   YY=             -6.3991   ZZ=             -7.7449
   XY=              0.2690   XZ=              0.0000   YZ=              0.0000

 Normal termination of Gaussian 16 at Mon Mar 20 17:33:51 2023.
