 Gaussian 16, Revision C.01,
 Gaussian 16:  ES64L-G16RevC.01  3-Jul-2019

 ----------------------------------------
 #P CCSD(T)/aug-cc-pVTZ scf(maxcycle=200)
 ----------------------------------------

 --------------
 Gaussian input
 --------------
 Symbolic Z-matrix:
 Charge =  0 Multiplicity = 1

                         Standard orientation:
 ---------------------------------------------------------------------
 Center     Atomic      Atomic             Coordinates (Angstroms)
 Number     Number       Type             X           Y           Z
 ---------------------------------------------------------------------
      1          8           0        0.000000   -0.000000    0.098138
      2          1           0        0.000000    0.823957   -0.392552
      3          1           0       -0.000000   -0.823957   -0.392552
 ---------------------------------------------------------------------

 SCF Done:  E(RHF) =  -76.0565698098     A.U. after   10 cycles
 E2 =    -0.2679320262D+00 EUMP2 =    -0.76324501835928D+02
 CCSD(T)
 CCSD(T)= -0.76337784192D+02

 The electronic state is 1-A1.
 Alpha  occ. eigenvalues --  -20.56079  -1.34327  -0.74121  -0.55800  -0.50587
 Alpha virt. eigenvalues --    0.03016   0.04686   0.13760   0.15617   0.17117
 Alpha virt. eigenvalues --    0.17984   0.23194   0.24241   0.26032   0.31592
 Alpha virt. eigenvalues --    0.32180   0.36372   0.43514   0.46600   0.60981

 Mulliken charges:
               1
     1  O   -0.446924
     2  H    0.223462
     3  H    0.223462
 Sum of Mulliken charges =  -0.00000

 Dipole moment (field-independent basis, Debye):
    X=             -0.0000    Y=              0.0000    Z=             -1.7363  Tot=              1.7363
 Quadrupole moment (field-independent basis, Debye-Ang):
   XX=             -7.5902   YY=             -3.6393   ZZ=             -6.6609
   XY=              0.0000   XZ=              0.0000   YZ=             -0.0000

 3296603\CCSD=-76.3291821\CCSD(T)=-76.3377842\RMSD=3.293e-09\PG=C02V [C
 Normal termination of Gaussian 16 at Wed Feb  8 13:54:31 2023.
