 Gaussian 16, Revision C.01,
 Gaussian 16:  ES64L-G16RevC.01  3-Jul-2019

 ---------------------------------
 #P B3LYP/6-31g* scf(maxcycle=200)
 ---------------------------------

 --------------
 Gaussian input
 --------------
 Symbolic Z-matrix:
 Charge =  0 Multiplicity = 1

                         Standard orientation:
 ---------------------------------------------------------------------
 Center     Atomic      Atomic             Coordinates (Angstroms)
 Number     Number       Type             X           Y           Z
 ---------------------------------------------------------------------
      1          8           0        0.000000    0.129284   -0.000000
      2          1           0        0.673660   -0.553258    0.000000
      3          1           0       -0.673660   -0.481014    0.000000
 ---------------------------------------------------------------------

 SCF Done:  E(RB3LYP) =  -76.4005912430     A.U. after    9 cycles

 The electronic state is 1-A'.
 Alpha  occ. eigenvalues --  -19.13724  -1.02581  -0.50844  -0.39790  -0.29743
 Alpha virt. eigenvalues --    0.06677   0.15913   0.74946   0.87948   0.88809
 Alpha virt. eigenvalues --    0.94930   1.07109   1.23986   1.69228   1.74774
 Alpha virt. eigenvalues --    1.76071   2.34593   2.59774   3.54663

 Mulliken charges:
               1
     1  O   -0.761586
     2  H    0.376606
     3  H    0.384981
 Sum of Mulliken charges =   0.00000

 Dipole moment (field-independent basis, Debye):
    X=             -0.0521    Y=             -2.2438    Z=              0.0000  Tot=              2.2444
 Quadrupole moment (field-independent basis, Debye-Ang):
   XX=             -4.8175   YY=             -5.6901   ZZ=             -7.1391
   XY=             -0.0807   XZ=             -0.0000   YZ=             -0.0000

 Normal termination of Gaussian 16 at Wed Feb  8 14:50:41 2023.
