 Gaussian 16, Revision C.01,
 Gaussian 16:  ES64L-G16RevC.01  3-Jul-2019

 ---------------------------------
 #P B3LYP/6-31g* scf(maxcycle=200)
 ---------------------------------

 --------------
 Gaussian input
 --------------
 Symbolic Z-matrix:
 Charge =  0 Multiplicity = 1

                         Standard orientation:
 ---------------------------------------------------------------------
 Center     Atomic      Atomic             Coordinates (Angstroms)
 Number     Number       Type             X           Y           Z
 ---------------------------------------------------------------------
      1          8           0        0.000000   -0.000000    0.117973
      2          1           0       -0.000000    0.818621   -0.471892
      3          1           0       -0.000000   -0.818621   -0.471892
 ---------------------------------------------------------------------

 SCF Done:  E(RB3LYP) =  -76.4053095913     A.U. after    9 cycles

 The electronic state is 1-A1.
 Alpha  occ. eigenvalues --  -19.14222  -0.97759  -0.50985  -0.35982  -0.28675
 Alpha virt. eigenvalues --    0.05092   0.13505   0.77263   0.80471   0.89232
 Alpha virt. eigenvalues --    0.89395   1.06440   1.16885   1.75174   1.75190
 Alpha virt. eigenvalues --    1.79129   2.23957   2.51015   3.53946

 Mulliken charges:
               1
     1  O   -0.771359
     2  H    0.385679
     3  H    0.385679
 Sum of Mulliken charges =  -0.00000

 Dipole moment (field-independent basis, Debye):
    X=             -0.0000    Y=              0.0000    Z=             -2.0293  Tot=              2.0293
 Quadrupole moment (field-independent basis, Debye-Ang):
   XX=             -7.2806   YY=             -4.0042   ZZ=             -6.1303
   XY=              0.0000   XZ=              0.0000   YZ=             -0.0000

 Normal termination of Gaussian 16 at Wed Feb  8 14:52:34 2023.
