 Gaussian 16, Revision C.01,
 Gaussian 16:  ES64L-G16RevC.01  3-Jul-2019

 ------------------------------
 #P HF/6-31g* scf(maxcycle=200)
 ------------------------------

 --------------
 Gaussian input
 --------------
 Symbolic Z-matrix:
 Charge =  0 Multiplicity = 1

                         Standard orientation:
 ---------------------------------------------------------------------
 Center     Atomic      Atomic             Coordinates (Angstroms)
 Number     Number       Type             X           Y           Z
 ---------------------------------------------------------------------
      1          8           0        0.000000    0.120617    0.000000
      2          1           0        0.776856   -0.523258   -0.000000
      3          1           0       -0.776856   -0.441678    0.000000
 ---------------------------------------------------------------------

 SCF Done:  E(RHF) =  -76.0070303707     A.U. after   10 cycles

 The electronic state is 1-A'.
 Alpha  occ. eigenvalues --  -20.56554  -1.32906  -0.69262  -0.56601  -0.49627
 Alpha virt. eigenvalues --    0.20417   0.29696   1.00765   1.11920   1.15487
 Alpha virt. eigenvalues --    1.16781   1.37402   1.43309   2.02650   2.03989
 Alpha virt. eigenvalues --    2.07243   2.58485   2.90567   3.95699

 Mulliken charges:
               1
     1  O   -0.862024
     2  H    0.427595
     3  H    0.434429
 Sum of Mulliken charges =  -0.00000

 Dipole moment (field-independent basis, Debye):
    X=             -0.0426    Y=             -2.2474    Z=             -0.0000  Tot=              2.2478
 Quadrupole moment (field-independent basis, Debye-Ang):
   XX=             -4.0868   YY=             -5.9774   ZZ=             -7.2813
   XY=             -0.1306   XZ=             -0.0000   YZ=              0.0000

 Normal termination of Gaussian 16 at Wed Feb  8 15:07:13 2023.
