 Gaussian 16, Revision C.01,
 Gaussian 16:  ES64L-G16RevC.01  3-Jul-2019

 ----------------------------------------
 #P CCSD(T)/aug-cc-pVTZ scf(maxcycle=200)
 ----------------------------------------

 --------------
 Gaussian input
 --------------
 Symbolic Z-matrix:
 Charge =  0 Multiplicity = 1

                         Standard orientation:
 ---------------------------------------------------------------------
 Center     Atomic      Atomic             Coordinates (Angstroms)
 Number     Number       Type             X           Y           Z
 ---------------------------------------------------------------------
      1          8           0        0.000000   -0.000000    0.121116
      2          1           0        0.000000    0.677902   -0.484466
      3          1           0       -0.000000   -0.677902   -0.484466
 ---------------------------------------------------------------------

 SCF Done:  E(RHF) =  -76.0553528329     A.U. after    9 cycles
 E2 =    -0.2652736866D+00 EUMP2 =    -0.76320626519543D+02
 CCSD(T)
 CCSD(T)= -0.76333884374D+02

 The electronic state is 1-A1.
 Alpha  occ. eigenvalues --  -20.56129  -1.38709  -0.72703  -0.61056  -0.51677
 Alpha virt. eigenvalues --    0.02943   0.04834   0.13473   0.15748   0.17774
 Alpha virt. eigenvalues --    0.18457   0.22966   0.24873   0.26857   0.29529
 Alpha virt. eigenvalues --    0.30745   0.37025   0.44631   0.47559   0.59816

 Mulliken charges:
               1
     1  O   -0.359210
     2  H    0.179605
     3  H    0.179605
 Sum of Mulliken charges =  -0.00000

 Dipole moment (field-independent basis, Debye):
    X=             -0.0000    Y=             -0.0000    Z=             -2.0650  Tot=              2.0650
 Quadrupole moment (field-independent basis, Debye-Ang):
   XX=             -7.4340   YY=             -4.6752   ZZ=             -5.9795
   XY=              0.0000   XZ=              0.0000   YZ=              0.0000

 3261063\CCSD=-76.3256715\CCSD(T)=-76.3338844\RMSD=8.622e-09\PG=C02V [C
 Normal termination of Gaussian 16 at Wed Feb  8 13:49:04 2023.
