 Gaussian 16, Revision C.01,
 Gaussian 16:  ES64L-G16RevC.01  3-Jul-2019

 ----------------------------------------
 #P PBE1PBE/aug-cc-pVDZ scf(maxcycle=200)
 ----------------------------------------

 --------------
 Gaussian input
 --------------
 Symbolic Z-matrix:
 Charge =  0 Multiplicity = 1

                         Standard orientation:
 ---------------------------------------------------------------------
 Center     Atomic      Atomic             Coordinates (Angstroms)
 Number     Number       Type             X           Y           Z
 ---------------------------------------------------------------------
      1          8           0        0.000000    0.125966    0.000000
      2          1           0        0.755426   -0.464807    0.000000
      3          1           0       -0.755426   -0.542923    0.000000
 ---------------------------------------------------------------------

 SCF Done:  E(RPBE1PBE) =  -76.3577028156     A.U. after    9 cycles

 The electronic state is 1-A'.
 Alpha  occ. eigenvalues --  -19.23583  -1.04067  -0.53481  -0.41653  -0.33197
 Alpha virt. eigenvalues --   -0.01471   0.03185   0.11026   0.13262   0.14167
 Alpha virt. eigenvalues --    0.16068   0.18662   0.24097   0.29134   0.29402
 Alpha virt. eigenvalues --    0.32498   0.45315   0.50523   0.53555   0.62865

 Mulliken charges:
               1
     1  O   -0.269059
     2  H    0.109737
     3  H    0.159323
 Sum of Mulliken charges =  -0.00000

 Dipole moment (field-independent basis, Debye):
    X=              0.0256    Y=             -1.9379    Z=              0.0000  Tot=              1.9381
 Quadrupole moment (field-independent basis, Debye-Ang):
   XX=             -4.5987   YY=             -6.3165   ZZ=             -7.7998
   XY=              0.1237   XZ=              0.0000   YZ=              0.0000

 Normal termination of Gaussian 16 at Wed Mar 29 21:52:34 2023.
