 Gaussian 16, Revision C.01,
 Gaussian 16:  ES64L-G16RevC.01  3-Jul-2019

 -----------------------------------
 #P HF/aug-cc-pVDZ scf(maxcycle=200)
 -----------------------------------

 --------------
 Gaussian input
 --------------
 Symbolic Z-matrix:
 Charge =  0 Multiplicity = 1

                         Standard orientation:
 ---------------------------------------------------------------------
 Center     Atomic      Atomic             Coordinates (Angstroms)
 Number     Number       Type             X           Y           Z
 ---------------------------------------------------------------------
      1          8           0        0.000000   -0.000000    0.142030
      2          1           0        0.000000    0.644490   -0.568120
      3          1           0       -0.000000   -0.644490   -0.568120
 ---------------------------------------------------------------------

 SCF Done:  E(RHF) =  -76.0285082393     A.U. after   10 cycles

 The electronic state is 1-A1.
 Alpha  occ. eigenvalues --  -20.58523  -1.37234  -0.67416  -0.62613  -0.51468
 Alpha virt. eigenvalues --    0.03332   0.05968   0.17102   0.19917   0.22282
 Alpha virt. eigenvalues --    0.23692   0.28306   0.36178   0.37137   0.39755
 Alpha virt. eigenvalues --    0.40668   0.55772   0.63901   0.66040   0.77171

 Mulliken charges:
               1
     1  O   -0.295974
     2  H    0.147987
     3  H    0.147987
 Sum of Mulliken charges =   0.00000

 Dipole moment (field-independent basis, Debye):
    X=             -0.0000    Y=              0.0000    Z=             -2.2987  Tot=              2.2987
 Quadrupole moment (field-independent basis, Debye-Ang):
   XX=             -7.5612   YY=             -5.1628   ZZ=             -5.6538
   XY=              0.0000   XZ=              0.0000   YZ=              0.0000

 Normal termination of Gaussian 16 at Mon Feb 20 10:15:56 2023.
