 Gaussian 16, Revision C.01,
 Gaussian 16:  ES64L-G16RevC.01  3-Jul-2019

 ----------------------------------------
 #P CCSD(T)/aug-cc-pVTZ scf(maxcycle=200)
 ----------------------------------------

 --------------
 Gaussian input
 --------------
 Symbolic Z-matrix:
 Charge =  0 Multiplicity = 1

                         Standard orientation:
 ---------------------------------------------------------------------
 Center     Atomic      Atomic             Coordinates (Angstroms)
 Number     Number       Type             X           Y           Z
 ---------------------------------------------------------------------
      1          8           0        0.000000    0.095676    0.000000
      2          1           0        0.801093   -0.431515   -0.000000
      3          1           0       -0.801093   -0.333894    0.000000
 ---------------------------------------------------------------------

 SCF Done:  E(RHF) =  -76.0561708289     A.U. after   10 cycles
 E2 =    -0.2660161530D+00 EUMP2 =    -0.76322186981966D+02
 CCSD(T)
 CCSD(T)= -0.76335459329D+02

 The electronic state is 1-A'.
 Alpha  occ. eigenvalues --  -20.55651  -1.35676  -0.75656  -0.56234  -0.50833
 Alpha virt. eigenvalues --    0.03045   0.04699   0.13755   0.15466   0.17197
 Alpha virt. eigenvalues --    0.17993   0.23357   0.24366   0.26081   0.31719
 Alpha virt. eigenvalues --    0.32281   0.36418   0.44005   0.47038   0.61178

 Mulliken charges:
               1
     1  O   -0.397422
     2  H    0.225342
     3  H    0.172080
 Sum of Mulliken charges =  -0.00000

 Dipole moment (field-independent basis, Debye):
    X=             -0.0127    Y=             -1.7208    Z=              0.0000  Tot=              1.7208
 Quadrupole moment (field-independent basis, Debye-Ang):
   XX=             -3.7358   YY=             -6.6166   ZZ=             -7.5291
   XY=             -0.1941   XZ=             -0.0000   YZ=              0.0000

 275498\CCSD=-76.3270993\CCSD(T)=-76.3354593\RMSD=2.522e-09\PG=CS [SG(H
 Normal termination of Gaussian 16 at Wed Feb  8 13:51:57 2023.
