 Gaussian 16, Revision C.01,
 Gaussian 16:  ES64L-G16RevC.01  3-Jul-2019

 ---------------------------------
 #P B3LYP/6-31g* scf(maxcycle=200)
 ---------------------------------

 --------------
 Gaussian input
 --------------
 Symbolic Z-matrix:
 Charge =  0 Multiplicity = 1

                         Standard orientation:
 ---------------------------------------------------------------------
 Center     Atomic      Atomic             Coordinates (Angstroms)
 Number     Number       Type             X           Y           Z
 ---------------------------------------------------------------------
      1          8           0       -0.000000   -0.000000    0.125774
      2          1           0        0.000000    0.656355   -0.503097
      3          1           0       -0.000000   -0.656355   -0.503097
 ---------------------------------------------------------------------

 SCF Done:  E(RB3LYP) =  -76.3962754291     A.U. after    9 cycles

 The electronic state is 1-A1.
 Alpha  occ. eigenvalues --  -19.13267  -1.03822  -0.51750  -0.39969  -0.29937
 Alpha virt. eigenvalues --    0.07337   0.16776   0.76187   0.87955   0.88801
 Alpha virt. eigenvalues --    0.98147   1.07853   1.24195   1.68521   1.74324
 Alpha virt. eigenvalues --    1.75569   2.38659   2.63230   3.55852

 Mulliken charges:
               1
     1  O   -0.764355
     2  H    0.382177
     3  H    0.382177
 Sum of Mulliken charges =  -0.00000

 Dipole moment (field-independent basis, Debye):
    X=             -0.0000    Y=             -0.0000    Z=             -2.2333  Tot=              2.2333
 Quadrupole moment (field-independent basis, Debye-Ang):
   XX=             -7.0892   YY=             -4.8287   ZZ=             -5.6899
   XY=              0.0000   XZ=              0.0000   YZ=              0.0000

 Normal termination of Gaussian 16 at Wed Feb  8 14:49:27 2023.
