 Gaussian 16, Revision C.01,
 Gaussian 16:  ES64L-G16RevC.01  3-Jul-2019

 ------------------------------
 #P HF/6-31g* scf(maxcycle=200)
 ------------------------------

 --------------
 Gaussian input
 --------------
 Symbolic Z-matrix:
 Charge =  0 Multiplicity = 1

                         Standard orientation:
 ---------------------------------------------------------------------
 Center     Atomic      Atomic             Coordinates (Angstroms)
 Number     Number       Type             X           Y           Z
 ---------------------------------------------------------------------
      1          8           0        0.000000    0.000000    0.090281
      2          1           0        0.000000    0.788996   -0.361124
      3          1           0       -0.000000   -0.788996   -0.361124
 ---------------------------------------------------------------------

 SCF Done:  E(RHF) =  -76.0023535861     A.U. after   10 cycles

 The electronic state is 1-A1.
 Alpha  occ. eigenvalues --  -20.54168  -1.35424  -0.76335  -0.54714  -0.49527
 Alpha virt. eigenvalues --    0.22243   0.31541   1.09820   1.14219   1.16909
 Alpha virt. eigenvalues --    1.17177   1.40676   1.41295   2.00798   2.05553
 Alpha virt. eigenvalues --    2.07818   2.74756   2.97782   4.02637

 Mulliken charges:
               1
     1  O   -0.897184
     2  H    0.448592
     3  H    0.448592
 Sum of Mulliken charges =  -0.00000

 Dipole moment (field-independent basis, Debye):
    X=             -0.0000    Y=              0.0000    Z=             -1.8784  Tot=              1.8784
 Quadrupole moment (field-independent basis, Debye-Ang):
   XX=             -7.1254   YY=             -3.5676   ZZ=             -6.3447
   XY=              0.0000   XZ=              0.0000   YZ=             -0.0000

 Normal termination of Gaussian 16 at Wed Feb  8 15:05:01 2023.
