 Gaussian 16, Revision C.01,
 Gaussian 16:  ES64L-G16RevC.01  3-Jul-2019

 ----------------------------------------
 #P CCSD(T)/aug-cc-pVDZ scf(maxcycle=200)
 ----------------------------------------

 --------------
 Gaussian input
 --------------
 Symbolic Z-matrix:
 Charge =  0 Multiplicity = 1

                         Standard orientation:
 ---------------------------------------------------------------------
 Center     Atomic      Atomic             Coordinates (Angstroms)
 Number     Number       Type             X           Y           Z
 ---------------------------------------------------------------------
      1          8           0        0.000000    0.000000    0.097141
      2          1           0       -0.000000    0.884405   -0.388563
      3          1           0       -0.000000   -0.884405   -0.388563
 ---------------------------------------------------------------------

 SCF Done:  E(RHF) =  -76.0257044796     A.U. after   10 cycles
 E2 =    -0.2233702621D+00 EUMP2 =    -0.76249074741743D+02
 CCSD(T)
 CCSD(T)= -0.76262102248D+02

 The electronic state is 1-A1.
 Alpha  occ. eigenvalues --  -20.57545  -1.32038  -0.71933  -0.54228  -0.49909
 Alpha virt. eigenvalues --    0.03541   0.05601   0.17719   0.19770   0.21045
 Alpha virt. eigenvalues --    0.22634   0.29136   0.30154   0.37195   0.43415
 Alpha virt. eigenvalues --    0.45478   0.51115   0.63403   0.64903   0.84248

 Mulliken charges:
               1
     1  O   -0.465526
     2  H    0.232763
     3  H    0.232763
 Sum of Mulliken charges =  -0.00000

 Dipole moment (field-independent basis, Debye):
    X=             -0.0000    Y=              0.0000    Z=             -1.7039  Tot=              1.7039
 Quadrupole moment (field-independent basis, Debye-Ang):
   XX=             -7.7555   YY=             -3.2989   ZZ=             -6.8657
   XY=              0.0000   XZ=              0.0000   YZ=             -0.0000

 .2567754\CCSD=-76.2565398\CCSD(T)=-76.2621022\RMSD=7.115e-09\PG=C02V [
 Normal termination of Gaussian 16 at Wed Feb  8 14:51:23 2023.
