 Gaussian 16, Revision C.01,
 Gaussian 16:  ES64L-G16RevC.01  3-Jul-2019

 ------------------------------------
 #P wB97XD/6-311g** scf(maxcycle=200)
 ------------------------------------

 --------------
 Gaussian input
 --------------
 Symbolic Z-matrix:
 Charge =  0 Multiplicity = 1

                         Standard orientation:
 ---------------------------------------------------------------------
 Center     Atomic      Atomic             Coordinates (Angstroms)
 Number     Number       Type             X           Y           Z
 ---------------------------------------------------------------------
      1          8           0        0.000000    0.090027   -0.000000
      2          1           0        0.817110   -0.411981    0.000000
      3          1           0       -0.817110   -0.308234   -0.000000
 ---------------------------------------------------------------------

 SCF Done:  E(RwB97XD) =  -76.4143327056     A.U. after   12 cycles

 The electronic state is 1-A'.
 Alpha  occ. eigenvalues --  -19.21173  -1.10010  -0.64840  -0.43062  -0.38317
 Alpha virt. eigenvalues --    0.12657   0.19740   0.46385   0.52272   0.85028
 Alpha virt. eigenvalues --    0.85729   0.94660   1.14873   1.31093   1.56054
 Alpha virt. eigenvalues --    1.64014   1.65315   2.08962   2.14956   2.50231

 Mulliken charges:
               1
     1  O   -0.546267
     2  H    0.273513
     3  H    0.272754
 Sum of Mulliken charges =   0.00000

 Dipole moment (field-independent basis, Debye):
    X=             -0.0331    Y=             -1.7860    Z=              0.0000  Tot=              1.7863
 Quadrupole moment (field-independent basis, Debye-Ang):
   XX=             -3.5410   YY=             -6.4393   ZZ=             -7.1329
   XY=             -0.2018   XZ=              0.0000   YZ=             -0.0000

 Normal termination of Gaussian 16 at Wed Feb  8 14:41:22 2023.
