 Gaussian 16, Revision C.01,
 Gaussian 16:  ES64L-G16RevC.01  3-Jul-2019

 ---------------------------------
 #P B3LYP/6-31g* scf(maxcycle=200)
 ---------------------------------

 --------------
 Gaussian input
 --------------
 Symbolic Z-matrix:
 Charge =  0 Multiplicity = 1

                         Standard orientation:
 ---------------------------------------------------------------------
 Center     Atomic      Atomic             Coordinates (Angstroms)
 Number     Number       Type             X           Y           Z
 ---------------------------------------------------------------------
      1          8           0        0.000000    0.103931    0.000000
      2          1           0        0.775189   -0.370792    0.000000
      3          1           0       -0.775189   -0.460659    0.000000
 ---------------------------------------------------------------------

 SCF Done:  E(RB3LYP) =  -76.4037056325     A.U. after    9 cycles

 The electronic state is 1-A'.
 Alpha  occ. eigenvalues --  -19.12739  -1.00606  -0.54535  -0.35685  -0.29096
 Alpha virt. eigenvalues --    0.07217   0.16221   0.81804   0.87459   0.89065
 Alpha virt. eigenvalues --    0.89262   1.08363   1.17560   1.73114   1.74874
 Alpha virt. eigenvalues --    1.78507   2.33444   2.63901   3.58606

 Mulliken charges:
               1
     1  O   -0.794639
     2  H    0.399160
     3  H    0.395479
 Sum of Mulliken charges =   0.00000

 Dipole moment (field-independent basis, Debye):
    X=              0.0419    Y=             -1.9391    Z=              0.0000  Tot=              1.9396
 Quadrupole moment (field-independent basis, Debye-Ang):
   XX=             -3.9698   YY=             -6.1757   ZZ=             -7.1315
   XY=              0.1475   XZ=              0.0000   YZ=              0.0000

 Normal termination of Gaussian 16 at Wed Feb  8 14:50:08 2023.
