 Gaussian 16, Revision C.01,
 Gaussian 16:  ES64L-G16RevC.01  3-Jul-2019

 ----------------------------------------
 #P CCSD(T)/aug-cc-pVDZ scf(maxcycle=200)
 ----------------------------------------

 --------------
 Gaussian input
 --------------
 Symbolic Z-matrix:
 Charge =  0 Multiplicity = 1

                         Standard orientation:
 ---------------------------------------------------------------------
 Center     Atomic      Atomic             Coordinates (Angstroms)
 Number     Number       Type             X           Y           Z
 ---------------------------------------------------------------------
      1          8           0        0.000000   -0.000000    0.147046
      2          1           0        0.000000    0.691029   -0.588182
      3          1           0       -0.000000   -0.691029   -0.588182
 ---------------------------------------------------------------------

 SCF Done:  E(RHF) =  -76.0253909043     A.U. after   10 cycles
 E2 =    -0.2261464198D+00 EUMP2 =    -0.76251537324086D+02
 CCSD(T)
 CCSD(T)= -0.76264365448D+02

 The electronic state is 1-A1.
 Alpha  occ. eigenvalues --  -20.59320  -1.34442  -0.65634  -0.61114  -0.51072
 Alpha virt. eigenvalues --    0.03265   0.05924   0.17216   0.20097   0.21965
 Alpha virt. eigenvalues --    0.23841   0.26737   0.35402   0.36556   0.39312
 Alpha virt. eigenvalues --    0.40152   0.54903   0.62771   0.65562   0.75569

 Mulliken charges:
               1
     1  O   -0.391619
     2  H    0.195810
     3  H    0.195810
 Sum of Mulliken charges =   0.00000

 Dipole moment (field-independent basis, Debye):
    X=             -0.0000    Y=              0.0000    Z=             -2.3183  Tot=              2.3183
 Quadrupole moment (field-independent basis, Debye-Ang):
   XX=             -7.6781   YY=             -5.0284   ZZ=             -5.6963
   XY=              0.0000   XZ=              0.0000   YZ=             -0.0000

 2588069\CCSD=-76.2585558\CCSD(T)=-76.2643654\RMSD=8.082e-09\PG=C02V [C
 Normal termination of Gaussian 16 at Wed Feb  8 14:51:00 2023.
