 Gaussian 16, Revision C.01,
 Gaussian 16:  ES64L-G16RevC.01  3-Jul-2019

 ------------------------------
 #P HF/6-31g* scf(maxcycle=200)
 ------------------------------

 --------------
 Gaussian input
 --------------
 Symbolic Z-matrix:
 Charge =  0 Multiplicity = 1

                         Standard orientation:
 ---------------------------------------------------------------------
 Center     Atomic      Atomic             Coordinates (Angstroms)
 Number     Number       Type             X           Y           Z
 ---------------------------------------------------------------------
      1          8           0        0.000000   -0.000000    0.117973
      2          1           0       -0.000000    0.818621   -0.471892
      3          1           0       -0.000000   -0.818621   -0.471892
 ---------------------------------------------------------------------

 SCF Done:  E(RHF) =  -76.0030131026     A.U. after   10 cycles

 The electronic state is 1-A1.
 Alpha  occ. eigenvalues --  -20.56780  -1.31365  -0.68577  -0.55360  -0.49294
 Alpha virt. eigenvalues --    0.19881   0.29040   1.01775   1.07579   1.14986
 Alpha virt. eigenvalues --    1.16914   1.37208   1.41507   2.04334   2.04365
 Alpha virt. eigenvalues --    2.08089   2.56607   2.85768   3.95049

 Mulliken charges:
               1
     1  O   -0.865801
     2  H    0.432901
     3  H    0.432901
 Sum of Mulliken charges =  -0.00000

 Dipole moment (field-independent basis, Debye):
    X=             -0.0000    Y=              0.0000    Z=             -2.1947  Tot=              2.1947
 Quadrupole moment (field-independent basis, Debye-Ang):
   XX=             -7.3325   YY=             -3.8291   ZZ=             -6.1057
   XY=              0.0000   XZ=              0.0000   YZ=             -0.0000

 Normal termination of Gaussian 16 at Wed Feb  8 15:07:31 2023.
