 Gaussian 16, Revision C.01,
 Gaussian 16:  ES64L-G16RevC.01  3-Jul-2019

 ----------------------------------------
 #P CCSD(T)/aug-cc-pVTZ scf(maxcycle=200)
 ----------------------------------------

 --------------
 Gaussian input
 --------------
 Symbolic Z-matrix:
 Charge =  0 Multiplicity = 1

                         Standard orientation:
 ---------------------------------------------------------------------
 Center     Atomic      Atomic             Coordinates (Angstroms)
 Number     Number       Type             X           Y           Z
 ---------------------------------------------------------------------
      1          8           0        0.000000    0.095642   -0.000000
      2          1           0        0.826707   -0.482837    0.000000
      3          1           0       -0.826707   -0.282296   -0.000000
 ---------------------------------------------------------------------

 SCF Done:  E(RHF) =  -76.0502440308     A.U. after   10 cycles
 E2 =    -0.2679177530D+00 EUMP2 =    -0.76318161783797D+02
 CCSD(T)
 CCSD(T)= -0.76331470609D+02

 The electronic state is 1-A'.
 Alpha  occ. eigenvalues --  -20.55914  -1.34441  -0.74457  -0.55385  -0.50535
 Alpha virt. eigenvalues --    0.03011   0.04679   0.13757   0.15564   0.16915
 Alpha virt. eigenvalues --    0.18001   0.23187   0.24244   0.25977   0.31852
 Alpha virt. eigenvalues --    0.32368   0.36346   0.42930   0.46976   0.61128

 Mulliken charges:
               1
     1  O   -0.438109
     2  H    0.264925
     3  H    0.173184
 Sum of Mulliken charges =   0.00000

 Dipole moment (field-independent basis, Debye):
    X=             -0.0204    Y=             -1.7040    Z=              0.0000  Tot=              1.7041
 Quadrupole moment (field-independent basis, Debye-Ang):
   XX=             -3.5953   YY=             -6.6640   ZZ=             -7.5927
   XY=             -0.4140   XZ=              0.0000   YZ=              0.0000

 3366\CCSD=-76.3228621\CCSD(T)=-76.3314706\RMSD=3.825e-09\PG=CS [SG(H2O
 Normal termination of Gaussian 16 at Wed Feb  8 13:55:47 2023.
