 Gaussian 16, Revision C.01,
 Gaussian 16:  ES64L-G16RevC.01  3-Jul-2019

 ---------------------------------
 #P B3LYP/6-31g* scf(maxcycle=200)
 ---------------------------------

 --------------
 Gaussian input
 --------------
 Symbolic Z-matrix:
 Charge =  0 Multiplicity = 1

                         Standard orientation:
 ---------------------------------------------------------------------
 Center     Atomic      Atomic             Coordinates (Angstroms)
 Number     Number       Type             X           Y           Z
 ---------------------------------------------------------------------
      1          8           0        0.000000    0.103719    0.000000
      2          1           0        0.835278   -0.462312   -0.000000
      3          1           0       -0.835278   -0.367440    0.000000
 ---------------------------------------------------------------------

 SCF Done:  E(RB3LYP) =  -76.4030244200     A.U. after    9 cycles

 The electronic state is 1-A'.
 Alpha  occ. eigenvalues --  -19.13308  -0.98143  -0.53040  -0.34518  -0.28537
 Alpha virt. eigenvalues --    0.05638   0.14714   0.78256   0.82993   0.89440
 Alpha virt. eigenvalues --    0.89484   1.08035   1.15243   1.74091   1.76979
 Alpha virt. eigenvalues --    1.79709   2.28972   2.53713   3.56426

 Mulliken charges:
               1
     1  O   -0.794854
     2  H    0.394124
     3  H    0.400730
 Sum of Mulliken charges =  -0.00000

 Dipole moment (field-independent basis, Debye):
    X=             -0.0424    Y=             -1.8886    Z=             -0.0000  Tot=              1.8891
 Quadrupole moment (field-independent basis, Debye-Ang):
   XX=             -3.6907   YY=             -6.3067   ZZ=             -7.2309
   XY=             -0.1676   XZ=             -0.0000   YZ=             -0.0000

 Normal termination of Gaussian 16 at Wed Feb  8 14:52:24 2023.
