 Gaussian 16, Revision C.01,
 Gaussian 16:  ES64L-G16RevC.01  3-Jul-2019

 ----------------------------------------
 #P CCSD(T)/aug-cc-pVTZ scf(maxcycle=200)
 ----------------------------------------

 --------------
 Gaussian input
 --------------
 Symbolic Z-matrix:
 Charge =  0 Multiplicity = 1

                         Standard orientation:
 ---------------------------------------------------------------------
 Center     Atomic      Atomic             Coordinates (Angstroms)
 Number     Number       Type             X           Y           Z
 ---------------------------------------------------------------------
      1          8           0       -0.000000   -0.000000    0.116311
      2          1           0        0.000000    0.698624   -0.465244
      3          1           0       -0.000000   -0.698624   -0.465244
 ---------------------------------------------------------------------

 SCF Done:  E(RHF) =  -76.0574191975     A.U. after   10 cycles
 E2 =    -0.2648844379D+00 EUMP2 =    -0.76322303635355D+02
 CCSD(T)
 CCSD(T)= -0.76335592163D+02

 The electronic state is 1-A1.
 Alpha  occ. eigenvalues --  -20.55983  -1.38354  -0.73630  -0.60237  -0.51574
 Alpha virt. eigenvalues --    0.02972   0.04810   0.13538   0.15677   0.17719
 Alpha virt. eigenvalues --    0.18359   0.23073   0.24815   0.26717   0.29917
 Alpha virt. eigenvalues --    0.30969   0.36901   0.44755   0.47511   0.60085

 Mulliken charges:
               1
     1  O   -0.354630
     2  H    0.177315
     3  H    0.177315
 Sum of Mulliken charges =   0.00000

 Dipole moment (field-independent basis, Debye):
    X=             -0.0000    Y=             -0.0000    Z=             -2.0049  Tot=              2.0049
 Quadrupole moment (field-independent basis, Debye-Ang):
   XX=             -7.4386   YY=             -4.5136   ZZ=             -6.0945
   XY=              0.0000   XZ=              0.0000   YZ=              0.0000

 .327844\CCSD=-76.3274132\CCSD(T)=-76.3355922\RMSD=2.286e-09\PG=C02V [C
 Normal termination of Gaussian 16 at Wed Feb  8 13:48:47 2023.
