 Gaussian 16, Revision C.01,
 Gaussian 16:  ES64L-G16RevC.01  3-Jul-2019

 ----------------------------------------
 #P CCSD(T)/aug-cc-pVTZ scf(maxcycle=200)
 ----------------------------------------

 --------------
 Gaussian input
 --------------
 Symbolic Z-matrix:
 Charge =  0 Multiplicity = 1

                         Standard orientation:
 ---------------------------------------------------------------------
 Center     Atomic      Atomic             Coordinates (Angstroms)
 Number     Number       Type             X           Y           Z
 ---------------------------------------------------------------------
      1          8           0        0.000000    0.123310    0.000000
      2          1           0        0.766259   -0.533141   -0.000000
      3          1           0       -0.766259   -0.453342    0.000000
 ---------------------------------------------------------------------

 SCF Done:  E(RHF) =  -76.0563456973     A.U. after   10 cycles
 E2 =    -0.2706739551D+00 EUMP2 =    -0.76327019652385D+02
 CCSD(T)
 CCSD(T)= -0.76340385670D+02

 The electronic state is 1-A'.
 Alpha  occ. eigenvalues --  -20.57265  -1.34219  -0.69983  -0.58355  -0.50891
 Alpha virt. eigenvalues --    0.02893   0.04771   0.13544   0.16011   0.17442
 Alpha virt. eigenvalues --    0.18361   0.22428   0.24417   0.26590   0.29728
 Alpha virt. eigenvalues --    0.30829   0.36519   0.43116   0.46252   0.59689

 Mulliken charges:
               1
     1  O   -0.474789
     2  H    0.255726
     3  H    0.219063
 Sum of Mulliken charges =  -0.00000

 Dipole moment (field-independent basis, Debye):
    X=             -0.0233    Y=             -2.0389    Z=              0.0000  Tot=              2.0390
 Quadrupole moment (field-independent basis, Debye-Ang):
   XX=             -4.2830   YY=             -6.1864   ZZ=             -7.6152
   XY=             -0.1322   XZ=             -0.0000   YZ=              0.0000

 .3319791\CCSD=-76.3314711\CCSD(T)=-76.3403857\RMSD=4.773e-09\PG=CS [SG
 Normal termination of Gaussian 16 at Wed Feb  8 13:57:43 2023.
