 Gaussian 16, Revision C.01,
 Gaussian 16:  ES64L-G16RevC.01  3-Jul-2019

 ------------------------------
 #P HF/6-31g* scf(maxcycle=200)
 ------------------------------

 --------------
 Gaussian input
 --------------
 Symbolic Z-matrix:
 Charge =  0 Multiplicity = 1

                         Standard orientation:
 ---------------------------------------------------------------------
 Center     Atomic      Atomic             Coordinates (Angstroms)
 Number     Number       Type             X           Y           Z
 ---------------------------------------------------------------------
      1          8           0       -0.000000   -0.000000    0.134441
      2          1           0       -0.000000    0.752479   -0.537762
      3          1           0       -0.000000   -0.752479   -0.537762
 ---------------------------------------------------------------------

 SCF Done:  E(RHF) =  -76.0021581603     A.U. after   10 cycles

 The electronic state is 1-A1.
 Alpha  occ. eigenvalues --  -20.57508  -1.32336  -0.66536  -0.57791  -0.49822
 Alpha virt. eigenvalues --    0.19795   0.28739   0.97090   1.11732   1.14582
 Alpha virt. eigenvalues --    1.16532   1.35869   1.46755   2.01307   2.05125
 Alpha virt. eigenvalues --    2.06730   2.56637   2.83515   3.92906

 Mulliken charges:
               1
     1  O   -0.842082
     2  H    0.421041
     3  H    0.421041
 Sum of Mulliken charges =   0.00000

 Dipole moment (field-independent basis, Debye):
    X=             -0.0000    Y=             -0.0000    Z=             -2.4015  Tot=              2.4015
 Quadrupole moment (field-independent basis, Debye-Ang):
   XX=             -7.3338   YY=             -4.4389   ZZ=             -5.7559
   XY=              0.0000   XZ=              0.0000   YZ=              0.0000

 Normal termination of Gaussian 16 at Wed Feb  8 15:07:33 2023.
