 Gaussian 16, Revision C.01,
 Gaussian 16:  ES64L-G16RevC.01  3-Jul-2019

 ----------------------------------------
 #P CCSD(T)/aug-cc-pVTZ scf(maxcycle=200)
 ----------------------------------------

 --------------
 Gaussian input
 --------------
 Symbolic Z-matrix:
 Charge =  0 Multiplicity = 1

                         Standard orientation:
 ---------------------------------------------------------------------
 Center     Atomic      Atomic             Coordinates (Angstroms)
 Number     Number       Type             X           Y           Z
 ---------------------------------------------------------------------
      1          8           0        0.000000    0.122949    0.000000
      2          1           0        0.733611   -0.413797    0.000000
      3          1           0       -0.733611   -0.569796    0.000000
 ---------------------------------------------------------------------

 SCF Done:  E(RHF) =  -76.0547994762     A.U. after   10 cycles
 E2 =    -0.2688016300D+00 EUMP2 =    -0.76323601106160D+02
 CCSD(T)
 CCSD(T)= -0.76336976302D+02

 The electronic state is 1-A'.
 Alpha  occ. eigenvalues --  -20.56870  -1.35811  -0.70980  -0.59160  -0.51161
 Alpha virt. eigenvalues --    0.02903   0.04797   0.13507   0.15908   0.17490
 Alpha virt. eigenvalues --    0.18438   0.22580   0.24568   0.26684   0.29672
 Alpha virt. eigenvalues --    0.30791   0.36665   0.43255   0.47041   0.59705

 Mulliken charges:
               1
     1  O   -0.431064
     2  H    0.171592
     3  H    0.259473
 Sum of Mulliken charges =  -0.00000

 Dipole moment (field-independent basis, Debye):
    X=              0.0491    Y=             -2.0511    Z=              0.0000  Tot=              2.0517
 Quadrupole moment (field-independent basis, Debye-Ang):
   XX=             -4.4380   YY=             -6.0915   ZZ=             -7.5535
   XY=              0.2458   XZ=              0.0000   YZ=              0.0000

 .3287779\CCSD=-76.3283004\CCSD(T)=-76.3369763\RMSD=4.074e-09\PG=CS [SG
 Normal termination of Gaussian 16 at Wed Feb  8 13:50:21 2023.
