 Gaussian 16, Revision C.01,
 Gaussian 16:  ES64L-G16RevC.01  3-Jul-2019

 ---------------------------------
 #P B3LYP/6-31g* scf(maxcycle=200)
 ---------------------------------

 --------------
 Gaussian input
 --------------
 Symbolic Z-matrix:
 Charge =  0 Multiplicity = 1

                         Standard orientation:
 ---------------------------------------------------------------------
 Center     Atomic      Atomic             Coordinates (Angstroms)
 Number     Number       Type             X           Y           Z
 ---------------------------------------------------------------------
      1          8           0        0.000000    0.117755    0.000000
      2          1           0        0.754250   -0.552460   -0.000000
      3          1           0       -0.754250   -0.389580    0.000000
 ---------------------------------------------------------------------

 SCF Done:  E(RB3LYP) =  -76.4037200601     A.U. after    9 cycles

 The electronic state is 1-A'.
 Alpha  occ. eigenvalues --  -19.13571  -1.00368  -0.52205  -0.37123  -0.29186
 Alpha virt. eigenvalues --    0.06193   0.15364   0.76669   0.88341   0.89097
 Alpha virt. eigenvalues --    0.89770   1.07346   1.19374   1.72892   1.74269
 Alpha virt. eigenvalues --    1.77970   2.27501   2.61609   3.56016

 Mulliken charges:
               1
     1  O   -0.775168
     2  H    0.380101
     3  H    0.395067
 Sum of Mulliken charges =  -0.00000

 Dipole moment (field-independent basis, Debye):
    X=             -0.0949    Y=             -2.0773    Z=             -0.0000  Tot=              2.0795
 Quadrupole moment (field-independent basis, Debye-Ang):
   XX=             -4.2833   YY=             -5.9780   ZZ=             -7.1823
   XY=             -0.2350   XZ=              0.0000   YZ=              0.0000

 Normal termination of Gaussian 16 at Wed Feb  8 14:51:54 2023.
