 Gaussian 16, Revision C.01,
 Gaussian 16:  ES64L-G16RevC.01  3-Jul-2019

 ------------------------------------
 #P wB97XD/6-311g** scf(maxcycle=200)
 ------------------------------------

 --------------
 Gaussian input
 --------------
 Symbolic Z-matrix:
 Charge =  0 Multiplicity = 1

                         Standard orientation:
 ---------------------------------------------------------------------
 Center     Atomic      Atomic             Coordinates (Angstroms)
 Number     Number       Type             X           Y           Z
 ---------------------------------------------------------------------
      1          8           0        0.000000    0.103719    0.000000
      2          1           0        0.835278   -0.367440    0.000000
      3          1           0       -0.835278   -0.462312    0.000000
 ---------------------------------------------------------------------

 SCF Done:  E(RwB97XD) =  -76.4169691341     A.U. after   12 cycles

 The electronic state is 1-A'.
 Alpha  occ. eigenvalues --  -19.22288  -1.08363  -0.61870  -0.43719  -0.38052
 Alpha virt. eigenvalues --    0.11424   0.18788   0.45225   0.48523   0.85134
 Alpha virt. eigenvalues --    0.85747   0.94227   1.15357   1.31661   1.50200
 Alpha virt. eigenvalues --    1.59705   1.64665   2.03759   2.09045   2.45614

 Mulliken charges:
               1
     1  O   -0.534363
     2  H    0.266551
     3  H    0.267813
 Sum of Mulliken charges =   0.00000

 Dipole moment (field-independent basis, Debye):
    X=              0.0370    Y=             -1.9213    Z=              0.0000  Tot=              1.9216
 Quadrupole moment (field-independent basis, Debye-Ang):
   XX=             -3.6367   YY=             -6.3470   ZZ=             -7.2387
   XY=              0.1760   XZ=              0.0000   YZ=              0.0000

 Normal termination of Gaussian 16 at Wed Feb  8 14:41:59 2023.
