 Gaussian 16, Revision C.01,
 Gaussian 16:  ES64L-G16RevC.01  3-Jul-2019

 -----------------------------------
 #P HF/aug-cc-pVDZ scf(maxcycle=200)
 -----------------------------------

 --------------
 Gaussian input
 --------------
 Symbolic Z-matrix:
 Charge =  0 Multiplicity = 1

                         Standard orientation:
 ---------------------------------------------------------------------
 Center     Atomic      Atomic             Coordinates (Angstroms)
 Number     Number       Type             X           Y           Z
 ---------------------------------------------------------------------
      1          8           0        0.000000    0.000000    0.128046
      2          1           0        0.000000    0.645279   -0.512185
      3          1           0       -0.000000   -0.645279   -0.512185
 ---------------------------------------------------------------------

 SCF Done:  E(RHF) =  -76.0307596018     A.U. after   10 cycles

 The electronic state is 1-A1.
 Alpha  occ. eigenvalues --  -20.57393  -1.39600  -0.71346  -0.62396  -0.51731
 Alpha virt. eigenvalues --    0.03479   0.05935   0.17081   0.19616   0.22569
 Alpha virt. eigenvalues --    0.23357   0.29951   0.36029   0.38675   0.39715
 Alpha virt. eigenvalues --    0.42201   0.55936   0.65306   0.65837   0.81059

 Mulliken charges:
               1
     1  O   -0.184917
     2  H    0.092458
     3  H    0.092458
 Sum of Mulliken charges =  -0.00000

 Dipole moment (field-independent basis, Debye):
    X=             -0.0000    Y=              0.0000    Z=             -2.1663  Tot=              2.1663
 Quadrupole moment (field-independent basis, Debye-Ang):
   XX=             -7.4492   YY=             -4.9520   ZZ=             -5.8355
   XY=              0.0000   XZ=              0.0000   YZ=             -0.0000

 Normal termination of Gaussian 16 at Mon Feb 20 10:26:42 2023.
