 Gaussian 16, Revision C.01,
 Gaussian 16:  ES64L-G16RevC.01  3-Jul-2019

 ---------------------------------
 #P B3LYP/6-31g* scf(maxcycle=200)
 ---------------------------------

 --------------
 Gaussian input
 --------------
 Symbolic Z-matrix:
 Charge =  0 Multiplicity = 1

                         Standard orientation:
 ---------------------------------------------------------------------
 Center     Atomic      Atomic             Coordinates (Angstroms)
 Number     Number       Type             X           Y           Z
 ---------------------------------------------------------------------
      1          8           0       -0.000000    0.000000    0.126380
      2          1           0       -0.000000    0.786628   -0.505520
      3          1           0       -0.000000   -0.786628   -0.505520
 ---------------------------------------------------------------------

 SCF Done:  E(RB3LYP) =  -76.4063372688     A.U. after    9 cycles

 The electronic state is 1-A1.
 Alpha  occ. eigenvalues --  -19.14568  -0.98243  -0.50068  -0.37218  -0.28899
 Alpha virt. eigenvalues --    0.05104   0.13282   0.75184   0.82461   0.89067
 Alpha virt. eigenvalues --    0.89351   1.05655   1.19208   1.73462   1.75575
 Alpha virt. eigenvalues --    1.78438   2.23352   2.50625   3.52995

 Mulliken charges:
               1
     1  O   -0.759897
     2  H    0.379949
     3  H    0.379949
 Sum of Mulliken charges =  -0.00000

 Dipole moment (field-independent basis, Debye):
    X=             -0.0000    Y=             -0.0000    Z=             -2.1223  Tot=              2.1223
 Quadrupole moment (field-independent basis, Debye-Ang):
   XX=             -7.2820   YY=             -4.2904   ZZ=             -5.9716
   XY=              0.0000   XZ=              0.0000   YZ=              0.0000

 Normal termination of Gaussian 16 at Wed Feb  8 14:52:35 2023.
