 Gaussian 16, Revision C.01,
 Gaussian 16:  ES64L-G16RevC.01  3-Jul-2019

 ------------------------------------
 #P wB97XD/6-311g** scf(maxcycle=200)
 ------------------------------------

 --------------
 Gaussian input
 --------------
 Symbolic Z-matrix:
 Charge =  0 Multiplicity = 1

                         Standard orientation:
 ---------------------------------------------------------------------
 Center     Atomic      Atomic             Coordinates (Angstroms)
 Number     Number       Type             X           Y           Z
 ---------------------------------------------------------------------
      1          8           0       -0.000000    0.000000    0.135089
      2          1           0        0.000000    0.680773   -0.540358
      3          1           0       -0.000000   -0.680773   -0.540358
 ---------------------------------------------------------------------

 SCF Done:  E(RwB97XD) =  -76.4184840095     A.U. after   11 cycles

 The electronic state is 1-A1.
 Alpha  occ. eigenvalues --  -19.23272  -1.11512  -0.58288  -0.49155  -0.39037
 Alpha virt. eigenvalues --    0.11450   0.19250   0.44671   0.53322   0.85302
 Alpha virt. eigenvalues --    0.85812   0.95897   1.15638   1.17319   1.40374
 Alpha virt. eigenvalues --    1.46337   1.84596   1.97063   2.17771   2.39497

 Mulliken charges:
               1
     1  O   -0.438161
     2  H    0.219080
     3  H    0.219080
 Sum of Mulliken charges =  -0.00000

 Dipole moment (field-independent basis, Debye):
    X=             -0.0000    Y=             -0.0000    Z=             -2.2615  Tot=              2.2615
 Quadrupole moment (field-independent basis, Debye-Ang):
   XX=             -7.1593   YY=             -4.8295   ZZ=             -5.6554
   XY=              0.0000   XZ=              0.0000   YZ=              0.0000

 Normal termination of Gaussian 16 at Wed Feb  8 14:41:21 2023.
