 Gaussian 16, Revision C.01,
 Gaussian 16:  ES64L-G16RevC.01  3-Jul-2019

 ----------------------------------------
 #P CCSD(T)/aug-cc-pVDZ scf(maxcycle=200)
 ----------------------------------------

 --------------
 Gaussian input
 --------------
 Symbolic Z-matrix:
 Charge =  0 Multiplicity = 1

                         Standard orientation:
 ---------------------------------------------------------------------
 Center     Atomic      Atomic             Coordinates (Angstroms)
 Number     Number       Type             X           Y           Z
 ---------------------------------------------------------------------
      1          8           0        0.000000    0.000000    0.108839
      2          1           0        0.000000    0.728102   -0.435356
      3          1           0       -0.000000   -0.728102   -0.435356
 ---------------------------------------------------------------------

 SCF Done:  E(RHF) =  -76.0389741505     A.U. after   10 cycles
 E2 =    -0.2150759864D+00 EUMP2 =    -0.76254050136932D+02
 CCSD(T)
 CCSD(T)= -0.76266937202D+02

 The electronic state is 1-A1.
 Alpha  occ. eigenvalues --  -20.56795  -1.38165  -0.75083  -0.59094  -0.51326
 Alpha virt. eigenvalues --    0.03635   0.05798   0.17285   0.19394   0.22537
 Alpha virt. eigenvalues --    0.22930   0.30543   0.33564   0.38831   0.41522
 Alpha virt. eigenvalues --    0.44425   0.54447   0.65753   0.66083   0.84488

 Mulliken charges:
               1
     1  O   -0.190546
     2  H    0.095273
     3  H    0.095273
 Sum of Mulliken charges =   0.00000

 Dipole moment (field-independent basis, Debye):
    X=             -0.0000    Y=             -0.0000    Z=             -1.9280  Tot=              1.9280
 Quadrupole moment (field-independent basis, Debye-Ang):
   XX=             -7.4743   YY=             -4.3111   ZZ=             -6.2878
   XY=              0.0000   XZ=              0.0000   YZ=              0.0000

 .2622659\CCSD=-76.2620786\CCSD(T)=-76.2669372\RMSD=3.575e-09\PG=C02V [
 Normal termination of Gaussian 16 at Wed Feb  8 14:47:01 2023.
