 Gaussian 16, Revision C.01,
 Gaussian 16:  ES64L-G16RevC.01  3-Jul-2019

 ----------------------------------------
 #P CCSD(T)/aug-cc-pVTZ scf(maxcycle=200)
 ----------------------------------------

 --------------
 Gaussian input
 --------------
 Symbolic Z-matrix:
 Charge =  0 Multiplicity = 1

                         Standard orientation:
 ---------------------------------------------------------------------
 Center     Atomic      Atomic             Coordinates (Angstroms)
 Number     Number       Type             X           Y           Z
 ---------------------------------------------------------------------
      1          8           0        0.000000    0.132889    0.000000
      2          1           0        0.689555   -0.459390    0.000000
      3          1           0       -0.689555   -0.603721    0.000000
 ---------------------------------------------------------------------

 SCF Done:  E(RHF) =  -76.0506912161     A.U. after   10 cycles
 E2 =    -0.2697340993D+00 EUMP2 =    -0.76320425315433D+02
 CCSD(T)
 CCSD(T)= -0.76333710896D+02

 The electronic state is 1-A'.
 Alpha  occ. eigenvalues --  -20.57182  -1.36444  -0.69321  -0.60715  -0.51383
 Alpha virt. eigenvalues --    0.02841   0.04848   0.13356   0.16030   0.17613
 Alpha virt. eigenvalues --    0.18637   0.22338   0.24668   0.26975   0.28913
 Alpha virt. eigenvalues --    0.30414   0.36865   0.43044   0.46979   0.59241

 Mulliken charges:
               1
     1  O   -0.435440
     2  H    0.174936
     3  H    0.260503
 Sum of Mulliken charges =  -0.00000

 Dipole moment (field-independent basis, Debye):
    X=              0.0575    Y=             -2.1721    Z=              0.0000  Tot=              2.1729
 Quadrupole moment (field-independent basis, Debye-Ang):
   XX=             -4.7898   YY=             -5.8492   ZZ=             -7.5436
   XY=              0.1986   XZ=              0.0000   YZ=              0.0000

 .3254379\CCSD=-76.3249482\CCSD(T)=-76.3337109\RMSD=3.895e-09\PG=CS [SG
 Normal termination of Gaussian 16 at Wed Feb  8 13:51:30 2023.
