 Gaussian 16, Revision C.01,
 Gaussian 16:  ES64L-G16RevC.01  3-Jul-2019

 ------------------------------------
 #P wB97XD/6-311g** scf(maxcycle=200)
 ------------------------------------

 --------------
 Gaussian input
 --------------
 Symbolic Z-matrix:
 Charge =  0 Multiplicity = 1

                         Standard orientation:
 ---------------------------------------------------------------------
 Center     Atomic      Atomic             Coordinates (Angstroms)
 Number     Number       Type             X           Y           Z
 ---------------------------------------------------------------------
      1          8           0        0.000000    0.117051    0.000000
      2          1           0        0.727232   -0.428307    0.000000
      3          1           0       -0.727232   -0.508101    0.000000
 ---------------------------------------------------------------------

 SCF Done:  E(RwB97XD) =  -76.4205926274     A.U. after   12 cycles

 The electronic state is 1-A'.
 Alpha  occ. eigenvalues --  -19.22257  -1.11633  -0.61622  -0.46894  -0.38905
 Alpha virt. eigenvalues --    0.12307   0.19759   0.47099   0.53352   0.85013
 Alpha virt. eigenvalues --    0.85425   0.95688   1.15381   1.29687   1.36295
 Alpha virt. eigenvalues --    1.54227   1.78064   2.03602   2.18175   2.39234

 Mulliken charges:
               1
     1  O   -0.477168
     2  H    0.239464
     3  H    0.237704
 Sum of Mulliken charges =   0.00000

 Dipole moment (field-independent basis, Debye):
    X=              0.0434    Y=             -2.1082    Z=              0.0000  Tot=              2.1086
 Quadrupole moment (field-independent basis, Debye-Ang):
   XX=             -4.3525   YY=             -5.9605   ZZ=             -7.1129
   XY=              0.1169   XZ=              0.0000   YZ=              0.0000

 Normal termination of Gaussian 16 at Wed Feb  8 14:40:27 2023.
