 Gaussian 16, Revision C.01,
 Gaussian 16:  ES64L-G16RevC.01  3-Jul-2019

 ----------------------------------------
 #P CCSD(T)/aug-cc-pVTZ scf(maxcycle=200)
 ----------------------------------------

 --------------
 Gaussian input
 --------------
 Symbolic Z-matrix:
 Charge =  0 Multiplicity = 1

                         Standard orientation:
 ---------------------------------------------------------------------
 Center     Atomic      Atomic             Coordinates (Angstroms)
 Number     Number       Type             X           Y           Z
 ---------------------------------------------------------------------
      1          8           0        0.000000    0.000000    0.092327
      2          1           0       -0.000000    0.840580   -0.369308
      3          1           0       -0.000000   -0.840580   -0.369308
 ---------------------------------------------------------------------

 SCF Done:  E(RHF) =  -76.0539032274     A.U. after   10 cycles
 E2 =    -0.2679415572D+00 EUMP2 =    -0.76321844784570D+02
 CCSD(T)
 CCSD(T)= -0.76335079695D+02

 The electronic state is 1-A1.
 Alpha  occ. eigenvalues --  -20.55865  -1.34073  -0.74716  -0.55068  -0.50452
 Alpha virt. eigenvalues --    0.03032   0.04665   0.13797   0.15544   0.16972
 Alpha virt. eigenvalues --    0.17906   0.23325   0.24140   0.25906   0.32072
 Alpha virt. eigenvalues --    0.32589   0.36297   0.43355   0.46557   0.61375

 Mulliken charges:
               1
     1  O   -0.452125
     2  H    0.226062
     3  H    0.226062
 Sum of Mulliken charges =  -0.00000

 Dipole moment (field-independent basis, Debye):
    X=             -0.0000    Y=             -0.0000    Z=             -1.6575  Tot=              1.6575
 Quadrupole moment (field-independent basis, Debye-Ang):
   XX=             -7.6001   YY=             -3.4731   ZZ=             -6.7744
   XY=              0.0000   XZ=              0.0000   YZ=             -0.0000

 .326953\CCSD=-76.3264726\CCSD(T)=-76.3350797\RMSD=3.056e-09\PG=C02V [C
 Normal termination of Gaussian 16 at Wed Feb  8 13:53:46 2023.
