 Gaussian 16, Revision C.01,
 Gaussian 16:  ES64L-G16RevC.01  3-Jul-2019

 ----------------------------------------
 #P CCSD(T)/aug-cc-pVTZ scf(maxcycle=200)
 ----------------------------------------

 --------------
 Gaussian input
 --------------
 Symbolic Z-matrix:
 Charge =  0 Multiplicity = 1

                         Standard orientation:
 ---------------------------------------------------------------------
 Center     Atomic      Atomic             Coordinates (Angstroms)
 Number     Number       Type             X           Y           Z
 ---------------------------------------------------------------------
      1          8           0        0.000000    0.097826    0.000000
      2          1           0        0.852703   -0.341012    0.000000
      3          1           0       -0.852703   -0.441598    0.000000
 ---------------------------------------------------------------------

 SCF Done:  E(RHF) =  -76.0506708850     A.U. after   10 cycles
 E2 =    -0.2698651605D+00 EUMP2 =    -0.76320536045415D+02
 CCSD(T)
 CCSD(T)= -0.76333841771D+02

 The electronic state is 1-A'.
 Alpha  occ. eigenvalues --  -20.56348  -1.33050  -0.72943  -0.54979  -0.50292
 Alpha virt. eigenvalues --    0.02984   0.04663   0.13759   0.15723   0.16876
 Alpha virt. eigenvalues --    0.17952   0.23058   0.24107   0.25925   0.31723
 Alpha virt. eigenvalues --    0.32269   0.36300   0.42670   0.46314   0.60996

 Mulliken charges:
               1
     1  O   -0.488102
     2  H    0.224619
     3  H    0.263483
 Sum of Mulliken charges =  -0.00000

 Dipole moment (field-independent basis, Debye):
    X=              0.0095    Y=             -1.7147    Z=              0.0000  Tot=              1.7147
 Quadrupole moment (field-independent basis, Debye-Ang):
   XX=             -3.4709   YY=             -6.7362   ZZ=             -7.6539
   XY=              0.2121   XZ=              0.0000   YZ=              0.0000

 3254917\CCSD=-76.3249862\CCSD(T)=-76.3338418\RMSD=4.136e-09\PG=CS [SG(
 Normal termination of Gaussian 16 at Wed Feb  8 13:54:47 2023.
