 Gaussian 16, Revision C.01,
 Gaussian 16:  ES64L-G16RevC.01  3-Jul-2019

 ----------------------------------------
 #P CCSD(T)/aug-cc-pVDZ scf(maxcycle=200)
 ----------------------------------------

 --------------
 Gaussian input
 --------------
 Symbolic Z-matrix:
 Charge =  0 Multiplicity = 1

                         Standard orientation:
 ---------------------------------------------------------------------
 Center     Atomic      Atomic             Coordinates (Angstroms)
 Number     Number       Type             X           Y           Z
 ---------------------------------------------------------------------
      1          8           0        0.000000    0.109702    0.000000
      2          1           0        0.783374   -0.526227   -0.000000
      3          1           0       -0.783374   -0.351390    0.000000
 ---------------------------------------------------------------------

 SCF Done:  E(RHF) =  -76.0355341258     A.U. after   10 cycles
 E2 =    -0.2191714714D+00 EUMP2 =    -0.76254705597210D+02
 CCSD(T)
 CCSD(T)= -0.76267743203D+02

 The electronic state is 1-A'.
 Alpha  occ. eigenvalues --  -20.57421  -1.35401  -0.73007  -0.57300  -0.50773
 Alpha virt. eigenvalues --    0.03571   0.05741   0.17446   0.19593   0.21979
 Alpha virt. eigenvalues --    0.22975   0.29143   0.32542   0.38166   0.41620
 Alpha virt. eigenvalues --    0.44366   0.53316   0.63921   0.66349   0.82619

 Mulliken charges:
               1
     1  O   -0.313682
     2  H    0.214854
     3  H    0.098827
 Sum of Mulliken charges =  -0.00000

 Dipole moment (field-independent basis, Debye):
    X=             -0.0388    Y=             -1.9035    Z=             -0.0000  Tot=              1.9038
 Quadrupole moment (field-independent basis, Debye-Ang):
   XX=             -4.0418   YY=             -6.4064   ZZ=             -7.6030
   XY=             -0.3228   XZ=             -0.0000   YZ=              0.0000

 27378\CCSD=-76.2625417\CCSD(T)=-76.2677432\RMSD=8.890e-09\PG=CS [SG(H2
 Normal termination of Gaussian 16 at Wed Feb  8 14:50:25 2023.
