 Gaussian 16, Revision C.01,
 Gaussian 16:  ES64L-G16RevC.01  3-Jul-2019

 ----------------------------------------
 #P PBE1PBE/aug-cc-pVDZ scf(maxcycle=200)
 ----------------------------------------

 --------------
 Gaussian input
 --------------
 Symbolic Z-matrix:
 Charge =  0 Multiplicity = 1

                         Standard orientation:
 ---------------------------------------------------------------------
 Center     Atomic      Atomic             Coordinates (Angstroms)
 Number     Number       Type             X           Y           Z
 ---------------------------------------------------------------------
      1          8           0        0.000000    0.125491    0.000000
      2          1           0        0.722938   -0.425546    0.000000
      3          1           0       -0.722938   -0.578385    0.000000
 ---------------------------------------------------------------------

 SCF Done:  E(RPBE1PBE) =  -76.3538733234     A.U. after    8 cycles

 The electronic state is 1-A'.
 Alpha  occ. eigenvalues --  -19.23226  -1.05472  -0.54031  -0.42255  -0.33447
 Alpha virt. eigenvalues --   -0.01347   0.03322   0.11018   0.13218   0.14238
 Alpha virt. eigenvalues --    0.16840   0.18857   0.24812   0.29379   0.29492
 Alpha virt. eigenvalues --    0.32709   0.45960   0.50544   0.54896   0.63002

 Mulliken charges:
               1
     1  O   -0.212376
     2  H    0.057166
     3  H    0.155210
 Sum of Mulliken charges =   0.00000

 Dipole moment (field-independent basis, Debye):
    X=              0.0538    Y=             -1.9546    Z=              0.0000  Tot=              1.9553
 Quadrupole moment (field-independent basis, Debye-Ang):
   XX=             -4.7379   YY=             -6.2261   ZZ=             -7.7325
   XY=              0.2311   XZ=              0.0000   YZ=              0.0000

 Normal termination of Gaussian 16 at Mon Mar 20 17:33:38 2023.
