 Gaussian 16, Revision C.01,
 Gaussian 16:  ES64L-G16RevC.01  3-Jul-2019

 ----------------------------------------
 #P PBE1PBE/aug-cc-pVDZ scf(maxcycle=200)
 ----------------------------------------

 --------------
 Gaussian input
 --------------
 Symbolic Z-matrix:
 Charge =  0 Multiplicity = 1

                         Standard orientation:
 ---------------------------------------------------------------------
 Center     Atomic      Atomic             Coordinates (Angstroms)
 Number     Number       Type             X           Y           Z
 ---------------------------------------------------------------------
      1          8           0        0.000000    0.104169    0.000000
      2          1           0        0.801514   -0.508738    0.000000
      3          1           0       -0.801514   -0.324615   -0.000000
 ---------------------------------------------------------------------

 SCF Done:  E(RPBE1PBE) =  -76.3525837058     A.U. after    9 cycles

 The electronic state is 1-A'.
 Alpha  occ. eigenvalues --  -19.22593  -1.04362  -0.56880  -0.39277  -0.33121
 Alpha virt. eigenvalues --   -0.01190   0.03163   0.11248   0.13081   0.13656
 Alpha virt. eigenvalues --    0.16503   0.19842   0.22745   0.28528   0.32489
 Alpha virt. eigenvalues --    0.35014   0.44265   0.50763   0.54620   0.66395

 Mulliken charges:
               1
     1  O   -0.245570
     2  H    0.178651
     3  H    0.066919
 Sum of Mulliken charges =  -0.00000

 Dipole moment (field-independent basis, Debye):
    X=             -0.0358    Y=             -1.7153    Z=              0.0000  Tot=              1.7157
 Quadrupole moment (field-independent basis, Debye-Ang):
   XX=             -4.0898   YY=             -6.6829   ZZ=             -7.7679
   XY=             -0.3468   XZ=              0.0000   YZ=             -0.0000

 Normal termination of Gaussian 16 at Mon Mar 20 17:35:10 2023.
