 Gaussian 16, Revision C.01,
 Gaussian 16:  ES64L-G16RevC.01  3-Jul-2019

 -----------------------------------
 #P HF/aug-cc-pVDZ scf(maxcycle=200)
 -----------------------------------

 --------------
 Gaussian input
 --------------
 Symbolic Z-matrix:
 Charge =  0 Multiplicity = 1

                         Standard orientation:
 ---------------------------------------------------------------------
 Center     Atomic      Atomic             Coordinates (Angstroms)
 Number     Number       Type             X           Y           Z
 ---------------------------------------------------------------------
      1          8           0       -0.000000    0.000000    0.125263
      2          1           0       -0.000000    0.726232   -0.501051
      3          1           0       -0.000000   -0.726232   -0.501051
 ---------------------------------------------------------------------

 SCF Done:  E(RHF) =  -76.0400234388     A.U. after   10 cycles

 The electronic state is 1-A1.
 Alpha  occ. eigenvalues --  -20.58017  -1.36026  -0.70596  -0.59739  -0.51100
 Alpha virt. eigenvalues --    0.03486   0.05846   0.17323   0.19748   0.22315
 Alpha virt. eigenvalues --    0.23332   0.28718   0.34077   0.38916   0.39242
 Alpha virt. eigenvalues --    0.42480   0.54487   0.64613   0.65939   0.79641

 Mulliken charges:
               1
     1  O   -0.292395
     2  H    0.146198
     3  H    0.146198
 Sum of Mulliken charges =  -0.00000

 Dipole moment (field-independent basis, Debye):
    X=             -0.0000    Y=             -0.0000    Z=             -2.0960  Tot=              2.0960
 Quadrupole moment (field-independent basis, Debye-Ang):
   XX=             -7.5822   YY=             -4.5426   ZZ=             -6.0797
   XY=              0.0000   XZ=              0.0000   YZ=              0.0000

 Normal termination of Gaussian 16 at Mon Feb 20 10:15:57 2023.
