 Gaussian 16, Revision C.01,
 Gaussian 16:  ES64L-G16RevC.01  3-Jul-2019

 ------------------------------
 #P HF/6-31g* scf(maxcycle=200)
 ------------------------------

 --------------
 Gaussian input
 --------------
 Symbolic Z-matrix:
 Charge =  0 Multiplicity = 1

                         Standard orientation:
 ---------------------------------------------------------------------
 Center     Atomic      Atomic             Coordinates (Angstroms)
 Number     Number       Type             X           Y           Z
 ---------------------------------------------------------------------
      1          8           0        0.000000    0.000000    0.092327
      2          1           0       -0.000000    0.840580   -0.369308
      3          1           0       -0.000000   -0.840580   -0.369308
 ---------------------------------------------------------------------

 SCF Done:  E(RHF) =  -76.0026335464     A.U. after   10 cycles

 The electronic state is 1-A1.
 Alpha  occ. eigenvalues --  -20.54891  -1.32609  -0.73422  -0.53440  -0.48955
 Alpha virt. eigenvalues --    0.20939   0.30509   1.04215   1.12509   1.16420
 Alpha virt. eigenvalues --    1.17363   1.38634   1.40066   2.02130   2.07042
 Alpha virt. eigenvalues --    2.08881   2.69458   2.87525   3.99909

 Mulliken charges:
               1
     1  O   -0.907399
     2  H    0.453699
     3  H    0.453699
 Sum of Mulliken charges =   0.00000

 Dipole moment (field-independent basis, Debye):
    X=             -0.0000    Y=             -0.0000    Z=             -1.8817  Tot=              1.8817
 Quadrupole moment (field-independent basis, Debye-Ang):
   XX=             -7.2335   YY=             -3.3104   ZZ=             -6.4425
   XY=              0.0000   XZ=              0.0000   YZ=             -0.0000

 Normal termination of Gaussian 16 at Wed Feb  8 15:06:21 2023.
