 Gaussian 16, Revision C.01,
 Gaussian 16:  ES64L-G16RevC.01  3-Jul-2019

 ------------------------------------
 #P wB97XD/6-311g** scf(maxcycle=200)
 ------------------------------------

 --------------
 Gaussian input
 --------------
 Symbolic Z-matrix:
 Charge =  0 Multiplicity = 1

                         Standard orientation:
 ---------------------------------------------------------------------
 Center     Atomic      Atomic             Coordinates (Angstroms)
 Number     Number       Type             X           Y           Z
 ---------------------------------------------------------------------
      1          8           0        0.000000   -0.000000    0.109243
      2          1           0       -0.000000    0.848370   -0.436971
      3          1           0       -0.000000   -0.848370   -0.436971
 ---------------------------------------------------------------------

 SCF Done:  E(RwB97XD) =  -76.4152892828     A.U. after   12 cycles

 The electronic state is 1-A1.
 Alpha  occ. eigenvalues --  -19.22797  -1.07497  -0.60611  -0.43900  -0.37920
 Alpha virt. eigenvalues --    0.10861   0.18204   0.45175   0.46197   0.85219
 Alpha virt. eigenvalues --    0.85738   0.93987   1.15662   1.31784   1.48418
 Alpha virt. eigenvalues --    1.58158   1.63895   2.00657   2.05834   2.44540

 Mulliken charges:
               1
     1  O   -0.530806
     2  H    0.265403
     3  H    0.265403
 Sum of Mulliken charges =   0.00000

 Dipole moment (field-independent basis, Debye):
    X=             -0.0000    Y=             -0.0000    Z=             -1.9651  Tot=              1.9651
 Quadrupole moment (field-independent basis, Debye-Ang):
   XX=             -7.2917   YY=             -3.6514   ZZ=             -6.3236
   XY=              0.0000   XZ=              0.0000   YZ=              0.0000

 Normal termination of Gaussian 16 at Wed Feb  8 14:43:02 2023.
