 Gaussian 16, Revision C.01,
 Gaussian 16:  ES64L-G16RevC.01  3-Jul-2019

 ------------------------------------
 #P wB97XD/6-311g** scf(maxcycle=200)
 ------------------------------------

 --------------
 Gaussian input
 --------------
 Symbolic Z-matrix:
 Charge =  0 Multiplicity = 1

                         Standard orientation:
 ---------------------------------------------------------------------
 Center     Atomic      Atomic             Coordinates (Angstroms)
 Number     Number       Type             X           Y           Z
 ---------------------------------------------------------------------
      1          8           0        0.000000   -0.000000    0.130279
      2          1           0        0.000000    0.634007   -0.521116
      3          1           0       -0.000000   -0.634007   -0.521116
 ---------------------------------------------------------------------

 SCF Done:  E(RwB97XD) =  -76.4096836528     A.U. after   12 cycles

 The electronic state is 1-A1.
 Alpha  occ. eigenvalues --  -19.22442  -1.14237  -0.59590  -0.50009  -0.39497
 Alpha virt. eigenvalues --    0.12278   0.20347   0.46960   0.56566   0.85200
 Alpha virt. eigenvalues --    0.85320   0.96775   1.14583   1.17352   1.42819
 Alpha virt. eigenvalues --    1.45405   1.90517   2.01999   2.23733   2.44602

 Mulliken charges:
               1
     1  O   -0.430880
     2  H    0.215440
     3  H    0.215440
 Sum of Mulliken charges =  -0.00000

 Dipole moment (field-independent basis, Debye):
    X=             -0.0000    Y=             -0.0000    Z=             -2.2498  Tot=              2.2498
 Quadrupole moment (field-independent basis, Debye-Ang):
   XX=             -7.0490   YY=             -4.9456   ZZ=             -5.6046
   XY=              0.0000   XZ=              0.0000   YZ=              0.0000

 Normal termination of Gaussian 16 at Wed Feb  8 14:40:05 2023.
