 Gaussian 16, Revision C.01,
 Gaussian 16:  ES64L-G16RevC.01  3-Jul-2019

 ------------------------------------
 #P wB97XD/6-311g** scf(maxcycle=200)
 ------------------------------------

 --------------
 Gaussian input
 --------------
 Symbolic Z-matrix:
 Charge =  0 Multiplicity = 1

                         Standard orientation:
 ---------------------------------------------------------------------
 Center     Atomic      Atomic             Coordinates (Angstroms)
 Number     Number       Type             X           Y           Z
 ---------------------------------------------------------------------
      1          8           0       -0.000000    0.000000    0.134625
      2          1           0       -0.000000    0.610888   -0.538500
      3          1           0       -0.000000   -0.610888   -0.538500
 ---------------------------------------------------------------------

 SCF Done:  E(RwB97XD) =  -76.4050579347     A.U. after   12 cycles

 The electronic state is 1-A1.
 Alpha  occ. eigenvalues --  -19.22608  -1.14723  -0.58630  -0.50862  -0.39607
 Alpha virt. eigenvalues --    0.12079   0.20396   0.46673   0.56342   0.85152
 Alpha virt. eigenvalues --    0.85436   0.96967   1.12942   1.18328   1.42559
 Alpha virt. eigenvalues --    1.44851   1.93454   2.01091   2.23867   2.47459

 Mulliken charges:
               1
     1  O   -0.421383
     2  H    0.210692
     3  H    0.210692
 Sum of Mulliken charges =  -0.00000

 Dipole moment (field-independent basis, Debye):
    X=             -0.0000    Y=             -0.0000    Z=             -2.2898  Tot=              2.2898
 Quadrupole moment (field-independent basis, Debye-Ang):
   XX=             -7.0476   YY=             -5.1040   ZZ=             -5.5045
   XY=              0.0000   XZ=              0.0000   YZ=              0.0000

 Normal termination of Gaussian 16 at Wed Feb  8 14:39:41 2023.
