 Gaussian 16, Revision C.01,
 Gaussian 16:  ES64L-G16RevC.01  3-Jul-2019

 ----------------------------------------
 #P CCSD(T)/aug-cc-pVTZ scf(maxcycle=200)
 ----------------------------------------

 --------------
 Gaussian input
 --------------
 Symbolic Z-matrix:
 Charge =  0 Multiplicity = 1

                         Standard orientation:
 ---------------------------------------------------------------------
 Center     Atomic      Atomic             Coordinates (Angstroms)
 Number     Number       Type             X           Y           Z
 ---------------------------------------------------------------------
      1          8           0       -0.000000   -0.000000    0.127779
      2          1           0       -0.000000    0.715190   -0.511114
      3          1           0       -0.000000   -0.715190   -0.511114
 ---------------------------------------------------------------------

 SCF Done:  E(RHF) =  -76.0581908560     A.U. after   10 cycles
 E2 =    -0.2692722796D+00 EUMP2 =    -0.76327463135544D+02
 CCSD(T)
 CCSD(T)= -0.76340733070D+02

 The electronic state is 1-A1.
 Alpha  occ. eigenvalues --  -20.57083  -1.35877  -0.70040  -0.60059  -0.51251
 Alpha virt. eigenvalues --    0.02886   0.04819   0.13464   0.15989   0.17662
 Alpha virt. eigenvalues --    0.18500   0.22488   0.24609   0.26830   0.29248
 Alpha virt. eigenvalues --    0.30600   0.36752   0.43671   0.46603   0.59461

 Mulliken charges:
               1
     1  O   -0.443695
     2  H    0.221848
     3  H    0.221848
 Sum of Mulliken charges =   0.00000

 Dipole moment (field-independent basis, Debye):
    X=             -0.0000    Y=             -0.0000    Z=             -2.1119  Tot=              2.1119
 Quadrupole moment (field-independent basis, Debye-Ang):
   XX=             -7.5504   YY=             -4.5994   ZZ=             -5.9965
   XY=              0.0000   XZ=              0.0000   YZ=              0.0000

 .3325102\CCSD=-76.3320209\CCSD(T)=-76.3407331\RMSD=3.845e-09\PG=C02V [
 Normal termination of Gaussian 16 at Wed Feb  8 13:52:26 2023.
