 Gaussian 16, Revision C.01,
 Gaussian 16:  ES64L-G16RevC.01  3-Jul-2019

 ----------------------------------------
 #P CCSD(T)/aug-cc-pVTZ scf(maxcycle=200)
 ----------------------------------------

 --------------
 Gaussian input
 --------------
 Symbolic Z-matrix:
 Charge =  0 Multiplicity = 1

                         Standard orientation:
 ---------------------------------------------------------------------
 Center     Atomic      Atomic             Coordinates (Angstroms)
 Number     Number       Type             X           Y           Z
 ---------------------------------------------------------------------
      1          8           0       -0.000000    0.143443   -0.000000
      2          1           0        0.673280   -0.608072   -0.000000
      3          1           0       -0.673280   -0.539473    0.000000
 ---------------------------------------------------------------------

 SCF Done:  E(RHF) =  -76.0470104668     A.U. after   10 cycles
 E2 =    -0.2727825836D+00 EUMP2 =    -0.76319793050340D+02
 CCSD(T)
 CCSD(T)= -0.76332909842D+02

 The electronic state is 1-A'.
 Alpha  occ. eigenvalues --  -20.57888  -1.35444  -0.66704  -0.61493  -0.51341
 Alpha virt. eigenvalues --    0.02764   0.04876   0.13225   0.16234   0.17665
 Alpha virt. eigenvalues --    0.18774   0.21897   0.24644   0.27188   0.28218
 Alpha virt. eigenvalues --    0.30160   0.36891   0.42630   0.45970   0.58848

 Mulliken charges:
               1
     1  O   -0.481647
     2  H    0.258011
     3  H    0.223636
 Sum of Mulliken charges =  -0.00000

 Dipole moment (field-independent basis, Debye):
    X=             -0.0316    Y=             -2.2826    Z=              0.0000  Tot=              2.2828
 Quadrupole moment (field-independent basis, Debye-Ang):
   XX=             -5.0266   YY=             -5.6756   ZZ=             -7.5953
   XY=             -0.0858   XZ=              0.0000   YZ=              0.0000

 .3243326\CCSD=-76.3237907\CCSD(T)=-76.3329098\RMSD=4.109e-09\PG=CS [SG
 Normal termination of Gaussian 16 at Wed Feb  8 13:56:07 2023.
