 Gaussian 16, Revision C.01,
 Gaussian 16:  ES64L-G16RevC.01  3-Jul-2019

 -----------------------------------
 #P HF/aug-cc-pVDZ scf(maxcycle=200)
 -----------------------------------

 --------------
 Gaussian input
 --------------
 Symbolic Z-matrix:
 Charge =  0 Multiplicity = 1

                         Standard orientation:
 ---------------------------------------------------------------------
 Center     Atomic      Atomic             Coordinates (Angstroms)
 Number     Number       Type             X           Y           Z
 ---------------------------------------------------------------------
      1          8           0        0.000000    0.117755    0.000000
      2          1           0        0.754250   -0.389580    0.000000
      3          1           0       -0.754250   -0.552460    0.000000
 ---------------------------------------------------------------------

 SCF Done:  E(RHF) =  -76.0361829535     A.U. after   10 cycles

 The electronic state is 1-A'.
 Alpha  occ. eigenvalues --  -20.57706  -1.35822  -0.71901  -0.58458  -0.50953
 Alpha virt. eigenvalues --    0.03525   0.05794   0.17369   0.19661   0.22102
 Alpha virt. eigenvalues --    0.23161   0.28846   0.33341   0.38481   0.40434
 Alpha virt. eigenvalues --    0.43468   0.53925   0.63875   0.66365   0.81189

 Mulliken charges:
               1
     1  O   -0.298780
     2  H    0.093531
     3  H    0.205249
 Sum of Mulliken charges =  -0.00000

 Dipole moment (field-independent basis, Debye):
    X=              0.0466    Y=             -2.0031    Z=              0.0000  Tot=              2.0036
 Quadrupole moment (field-independent basis, Debye-Ang):
   XX=             -4.2984   YY=             -6.2305   ZZ=             -7.5905
   XY=              0.2768   XZ=              0.0000   YZ=              0.0000

 Normal termination of Gaussian 16 at Mon Feb 20 10:15:26 2023.
