 Gaussian 16, Revision C.01,
 Gaussian 16:  ES64L-G16RevC.01  3-Jul-2019

 ----------------------------------------
 #P CCSD(T)/aug-cc-pVDZ scf(maxcycle=200)
 ----------------------------------------

 --------------
 Gaussian input
 --------------
 Symbolic Z-matrix:
 Charge =  0 Multiplicity = 1

                         Standard orientation:
 ---------------------------------------------------------------------
 Center     Atomic      Atomic             Coordinates (Angstroms)
 Number     Number       Type             X           Y           Z
 ---------------------------------------------------------------------
      1          8           0        0.000000   -0.000000    0.098416
      2          1           0        0.000000    0.764290   -0.393663
      3          1           0       -0.000000   -0.764290   -0.393663
 ---------------------------------------------------------------------

 SCF Done:  E(RHF) =  -76.0376547071     A.U. after   10 cycles
 E2 =    -0.2148804102D+00 EUMP2 =    -0.76252535117238D+02
 CCSD(T)
 CCSD(T)= -0.76265398114D+02

 The electronic state is 1-A1.
 Alpha  occ. eigenvalues --  -20.56444  -1.37560  -0.76681  -0.57507  -0.51114
 Alpha virt. eigenvalues --    0.03696   0.05730   0.17375   0.19287   0.22426
 Alpha virt. eigenvalues --    0.22690   0.31021   0.32424   0.38415   0.43140
 Alpha virt. eigenvalues --    0.45673   0.53635   0.65542   0.66372   0.86811

 Mulliken charges:
               1
     1  O   -0.211081
     2  H    0.105540
     3  H    0.105540
 Sum of Mulliken charges =   0.00000

 Dipole moment (field-independent basis, Debye):
    X=             -0.0000    Y=              0.0000    Z=             -1.7935  Tot=              1.7935
 Quadrupole moment (field-independent basis, Debye-Ang):
   XX=             -7.4901   YY=             -3.9995   ZZ=             -6.5113
   XY=              0.0000   XZ=              0.0000   YZ=             -0.0000

 .2607549\CCSD=-76.2605627\CCSD(T)=-76.2653981\RMSD=2.984e-09\PG=C02V [
 Normal termination of Gaussian 16 at Wed Feb  8 14:47:12 2023.
