 Gaussian 16, Revision C.01,
 Gaussian 16:  ES64L-G16RevC.01  3-Jul-2019

 ----------------------------------------
 #P PBE1PBE/aug-cc-pVDZ scf(maxcycle=200)
 ----------------------------------------

 --------------
 Gaussian input
 --------------
 Symbolic Z-matrix:
 Charge =  0 Multiplicity = 1

                         Standard orientation:
 ---------------------------------------------------------------------
 Center     Atomic      Atomic             Coordinates (Angstroms)
 Number     Number       Type             X           Y           Z
 ---------------------------------------------------------------------
      1          8           0        0.000000    0.090027    0.000000
      2          1           0        0.817110   -0.308234    0.000000
      3          1           0       -0.817110   -0.411981    0.000000
 ---------------------------------------------------------------------

 SCF Done:  E(RPBE1PBE) =  -76.3508516516     A.U. after    9 cycles

 The electronic state is 1-A'.
 Alpha  occ. eigenvalues --  -19.21928  -1.04806  -0.59230  -0.38123  -0.33193
 Alpha virt. eigenvalues --   -0.00891   0.03205   0.11515   0.12948   0.13831
 Alpha virt. eigenvalues --    0.16422   0.21039   0.22079   0.28418   0.34498
 Alpha virt. eigenvalues --    0.36598   0.43725   0.52395   0.54339   0.68952

 Mulliken charges:
               1
     1  O   -0.218212
     2  H    0.079573
     3  H    0.138639
 Sum of Mulliken charges =  -0.00000

 Dipole moment (field-independent basis, Debye):
    X=              0.0133    Y=             -1.5630    Z=              0.0000  Tot=              1.5631
 Quadrupole moment (field-independent basis, Debye-Ang):
   XX=             -3.8380   YY=             -6.9058   ZZ=             -7.7261
   XY=              0.2120   XZ=              0.0000   YZ=              0.0000

 Normal termination of Gaussian 16 at Mon Mar 20 17:33:38 2023.
