 Gaussian 16, Revision C.01,
 Gaussian 16:  ES64L-G16RevC.01  3-Jul-2019

 ----------------------------------------
 #P PBE1PBE/aug-cc-pVDZ scf(maxcycle=200)
 ----------------------------------------

 --------------
 Gaussian input
 --------------
 Symbolic Z-matrix:
 Charge =  0 Multiplicity = 1

                         Standard orientation:
 ---------------------------------------------------------------------
 Center     Atomic      Atomic             Coordinates (Angstroms)
 Number     Number       Type             X           Y           Z
 ---------------------------------------------------------------------
      1          8           0        0.000000    0.098513    0.000000
      2          1           0        0.818586   -0.296706    0.000000
      3          1           0       -0.818586   -0.491400    0.000000
 ---------------------------------------------------------------------

 SCF Done:  E(RPBE1PBE) =  -76.3505672962     A.U. after    9 cycles

 The electronic state is 1-A'.
 Alpha  occ. eigenvalues --  -19.22418  -1.04116  -0.57493  -0.38567  -0.33039
 Alpha virt. eigenvalues --   -0.01177   0.03125   0.11268   0.13046   0.13450
 Alpha virt. eigenvalues --    0.16401   0.20142   0.22352   0.28326   0.33310
 Alpha virt. eigenvalues --    0.35650   0.43789   0.50718   0.54545   0.67291

 Mulliken charges:
               1
     1  O   -0.258718
     2  H    0.072349
     3  H    0.186369
 Sum of Mulliken charges =  -0.00000

 Dipole moment (field-independent basis, Debye):
    X=              0.0304    Y=             -1.6479    Z=              0.0000  Tot=              1.6482
 Quadrupole moment (field-independent basis, Debye-Ang):
   XX=             -3.9343   YY=             -6.7930   ZZ=             -7.7780
   XY=              0.3846   XZ=              0.0000   YZ=              0.0000

 Normal termination of Gaussian 16 at Mon Mar 20 17:58:30 2023.
