 Gaussian 16, Revision C.01,
 Gaussian 16:  ES64L-G16RevC.01  3-Jul-2019

 ----------------------------------------
 #P CCSD(T)/aug-cc-pVTZ scf(maxcycle=200)
 ----------------------------------------

 --------------
 Gaussian input
 --------------
 Symbolic Z-matrix:
 Charge =  0 Multiplicity = 1

                         Standard orientation:
 ---------------------------------------------------------------------
 Center     Atomic      Atomic             Coordinates (Angstroms)
 Number     Number       Type             X           Y           Z
 ---------------------------------------------------------------------
      1          8           0       -0.000000    0.120370    0.000000
      2          1           0        0.744049   -0.561151    0.000000
      3          1           0       -0.744049   -0.401810   -0.000000
 ---------------------------------------------------------------------

 SCF Done:  E(RHF) =  -76.0552474046     A.U. after   10 cycles
 E2 =    -0.2686204961D+00 EUMP2 =    -0.76323867900732D+02
 CCSD(T)
 CCSD(T)= -0.76337254666D+02

 The electronic state is 1-A'.
 Alpha  occ. eigenvalues --  -20.56786  -1.35662  -0.71374  -0.58774  -0.51103
 Alpha virt. eigenvalues --    0.02917   0.04784   0.13539   0.15876   0.17450
 Alpha virt. eigenvalues --    0.18389   0.22642   0.24544   0.26610   0.29872
 Alpha virt. eigenvalues --    0.30905   0.36625   0.43274   0.47049   0.59827

 Mulliken charges:
               1
     1  O   -0.430625
     2  H    0.259494
     3  H    0.171131
 Sum of Mulliken charges =  -0.00000

 Dipole moment (field-independent basis, Debye):
    X=             -0.0467    Y=             -2.0195    Z=             -0.0000  Tot=              2.0201
 Quadrupole moment (field-independent basis, Debye-Ang):
   XX=             -4.3508   YY=             -6.1515   ZZ=             -7.5565
   XY=             -0.2590   XZ=              0.0000   YZ=             -0.0000

 .3290704\CCSD=-76.3285949\CCSD(T)=-76.3372547\RMSD=4.095e-09\PG=CS [SG
 Normal termination of Gaussian 16 at Wed Feb  8 13:56:28 2023.
