 Gaussian 16, Revision C.01,
 Gaussian 16:  ES64L-G16RevC.01  3-Jul-2019

 ------------------------------------
 #P wB97XD/6-311g** scf(maxcycle=200)
 ------------------------------------

 --------------
 Gaussian input
 --------------
 Symbolic Z-matrix:
 Charge =  0 Multiplicity = 1

                         Standard orientation:
 ---------------------------------------------------------------------
 Center     Atomic      Atomic             Coordinates (Angstroms)
 Number     Number       Type             X           Y           Z
 ---------------------------------------------------------------------
      1          8           0        0.000000    0.000000    0.117489
      2          1           0        0.000000    0.758015   -0.469958
      3          1           0       -0.000000   -0.758015   -0.469958
 ---------------------------------------------------------------------

 SCF Done:  E(RwB97XD) =  -76.4233434707     A.U. after   12 cycles

 The electronic state is 1-A1.
 Alpha  occ. eigenvalues --  -19.22597  -1.10277  -0.61010  -0.46277  -0.38635
 Alpha virt. eigenvalues --    0.11906   0.19231   0.46557   0.50868   0.85145
 Alpha virt. eigenvalues --    0.85512   0.95200   1.15496   1.33412   1.35057
 Alpha virt. eigenvalues --    1.54809   1.74468   2.01992   2.14866   2.38293

 Mulliken charges:
               1
     1  O   -0.487149
     2  H    0.243574
     3  H    0.243574
 Sum of Mulliken charges =   0.00000

 Dipole moment (field-independent basis, Debye):
    X=             -0.0000    Y=              0.0000    Z=             -2.0966  Tot=              2.0966
 Quadrupole moment (field-independent basis, Debye-Ang):
   XX=             -7.1709   YY=             -4.2194   ZZ=             -6.0305
   XY=              0.0000   XZ=              0.0000   YZ=             -0.0000

 Normal termination of Gaussian 16 at Wed Feb  8 14:41:34 2023.
