 Gaussian 16, Revision C.01,
 Gaussian 16:  ES64L-G16RevC.01  3-Jul-2019

 ----------------------------------------
 #P CCSD(T)/aug-cc-pVDZ scf(maxcycle=200)
 ----------------------------------------

 --------------
 Gaussian input
 --------------
 Symbolic Z-matrix:
 Charge =  0 Multiplicity = 1

                         Standard orientation:
 ---------------------------------------------------------------------
 Center     Atomic      Atomic             Coordinates (Angstroms)
 Number     Number       Type             X           Y           Z
 ---------------------------------------------------------------------
      1          8           0       -0.000000    0.000000    0.131794
      2          1           0       -0.000000    0.764096   -0.527174
      3          1           0       -0.000000   -0.764096   -0.527174
 ---------------------------------------------------------------------

 SCF Done:  E(RHF) =  -76.0329897583     A.U. after   10 cycles
 E2 =    -0.2245087115D+00 EUMP2 =    -0.76257498469797D+02
 CCSD(T)
 CCSD(T)= -0.76270557580D+02

 The electronic state is 1-A1.
 Alpha  occ. eigenvalues --  -20.58848  -1.33556  -0.68073  -0.58739  -0.50735
 Alpha virt. eigenvalues --    0.03393   0.05818   0.17419   0.19975   0.21925
 Alpha virt. eigenvalues --    0.23499   0.27219   0.33447   0.38513   0.38556
 Alpha virt. eigenvalues --    0.41735   0.53757   0.63272   0.65345   0.77837

 Mulliken charges:
               1
     1  O   -0.397446
     2  H    0.198723
     3  H    0.198723
 Sum of Mulliken charges =   0.00000

 Dipole moment (field-independent basis, Debye):
    X=             -0.0000    Y=             -0.0000    Z=             -2.1376  Tot=              2.1376
 Quadrupole moment (field-independent basis, Debye-Ang):
   XX=             -7.6982   YY=             -4.4473   ZZ=             -6.0889
   XY=              0.0000   XZ=              0.0000   YZ=              0.0000

 651199\CCSD=-76.264902\CCSD(T)=-76.2705576\RMSD=8.434e-09\PG=C02V [C2(
 Normal termination of Gaussian 16 at Wed Feb  8 14:51:29 2023.
