 Gaussian 16, Revision C.01,
 Gaussian 16:  ES64L-G16RevC.01  3-Jul-2019

 ----------------------------------------
 #P PBE1PBE/aug-cc-pVDZ scf(maxcycle=200)
 ----------------------------------------

 --------------
 Gaussian input
 --------------
 Symbolic Z-matrix:
 Charge =  0 Multiplicity = 1

                         Standard orientation:
 ---------------------------------------------------------------------
 Center     Atomic      Atomic             Coordinates (Angstroms)
 Number     Number       Type             X           Y           Z
 ---------------------------------------------------------------------
      1          8           0        0.000000    0.000000    0.118732
      2          1           0       -0.000000    0.688368   -0.474927
      3          1           0       -0.000000   -0.688368   -0.474927
 ---------------------------------------------------------------------

 SCF Done:  E(RPBE1PBE) =  -76.3521857676     A.U. after    8 cycles

 The electronic state is 1-A1.
 Alpha  occ. eigenvalues --  -19.22447  -1.07686  -0.55983  -0.42751  -0.33866
 Alpha virt. eigenvalues --   -0.00919   0.03531   0.11296   0.13122   0.15082
 Alpha virt. eigenvalues --    0.17383   0.19792   0.25439   0.29954   0.30222
 Alpha virt. eigenvalues --    0.33295   0.46771   0.53067   0.55347   0.64113

 Mulliken charges:
               1
     1  O   -0.105680
     2  H    0.052840
     3  H    0.052840
 Sum of Mulliken charges =   0.00000

 Dipole moment (field-independent basis, Debye):
    X=             -0.0000    Y=             -0.0000    Z=             -1.9250  Tot=              1.9250
 Quadrupole moment (field-independent basis, Debye-Ang):
   XX=             -7.6097   YY=             -4.7979   ZZ=             -6.2284
   XY=              0.0000   XZ=              0.0000   YZ=              0.0000

 Normal termination of Gaussian 16 at Mon Mar 20 17:32:57 2023.
