 Gaussian 16, Revision C.01,
 Gaussian 16:  ES64L-G16RevC.01  3-Jul-2019

 ----------------------------------------
 #P PBE1PBE/aug-cc-pVDZ scf(maxcycle=200)
 ----------------------------------------

 --------------
 Gaussian input
 --------------
 Symbolic Z-matrix:
 Charge =  0 Multiplicity = 1

                         Standard orientation:
 ---------------------------------------------------------------------
 Center     Atomic      Atomic             Coordinates (Angstroms)
 Number     Number       Type             X           Y           Z
 ---------------------------------------------------------------------
      1          8           0        0.000000    0.117887   -0.000000
      2          1           0        0.787213   -0.513283    0.000000
      3          1           0       -0.787213   -0.429814    0.000000
 ---------------------------------------------------------------------

 SCF Done:  E(RPBE1PBE) =  -76.3577491337     A.U. after    9 cycles

 The electronic state is 1-A'.
 Alpha  occ. eigenvalues --  -19.23344  -1.03661  -0.54553  -0.40520  -0.33070
 Alpha virt. eigenvalues --   -0.01409   0.03126   0.11114   0.13216   0.13945
 Alpha virt. eigenvalues --    0.16071   0.18928   0.23272   0.28780   0.30502
 Alpha virt. eigenvalues --    0.33362   0.44687   0.50653   0.53473   0.64020

 Mulliken charges:
               1
     1  O   -0.279945
     2  H    0.166062
     3  H    0.113883
 Sum of Mulliken charges =   0.00000

 Dipole moment (field-independent basis, Debye):
    X=             -0.0223    Y=             -1.8495    Z=              0.0000  Tot=              1.8496
 Quadrupole moment (field-independent basis, Debye-Ang):
   XX=             -4.3376   YY=             -6.4998   ZZ=             -7.8129
   XY=             -0.1441   XZ=              0.0000   YZ=             -0.0000

 Normal termination of Gaussian 16 at Wed Mar 29 21:53:26 2023.
