 Gaussian 16, Revision C.01,
 Gaussian 16:  ES64L-G16RevC.01  3-Jul-2019

 ----------------------------------------
 #P CCSD(T)/aug-cc-pVDZ scf(maxcycle=200)
 ----------------------------------------

 --------------
 Gaussian input
 --------------
 Symbolic Z-matrix:
 Charge =  0 Multiplicity = 1

                         Standard orientation:
 ---------------------------------------------------------------------
 Center     Atomic      Atomic             Coordinates (Angstroms)
 Number     Number       Type             X           Y           Z
 ---------------------------------------------------------------------
      1          8           0        0.000000    0.124503   -0.000000
      2          1           0        0.695735   -0.535522    0.000000
      3          1           0       -0.695735   -0.460504   -0.000000
 ---------------------------------------------------------------------

 SCF Done:  E(RHF) =  -76.0374284927     A.U. after   10 cycles
 E2 =    -0.2179429035D+00 EUMP2 =    -0.76255371396199D+02
 CCSD(T)
 CCSD(T)= -0.76268263289D+02

 The electronic state is 1-A'.
 Alpha  occ. eigenvalues --  -20.57638  -1.37621  -0.71500  -0.60615  -0.51366
 Alpha virt. eigenvalues --    0.03503   0.05875   0.17225   0.19650   0.22437
 Alpha virt. eigenvalues --    0.23301   0.29336   0.34779   0.39173   0.39291
 Alpha virt. eigenvalues --    0.42634   0.55042   0.64874   0.66118   0.80568

 Mulliken charges:
               1
     1  O   -0.235800
     2  H    0.144403
     3  H    0.091398
 Sum of Mulliken charges =   0.00000

 Dipole moment (field-independent basis, Debye):
    X=             -0.0280    Y=             -2.1043    Z=              0.0000  Tot=              2.1044
 Quadrupole moment (field-independent basis, Debye-Ang):
   XX=             -4.6754   YY=             -6.0064   ZZ=             -7.5181
   XY=             -0.1113   XZ=              0.0000   YZ=             -0.0000

 .2633609\CCSD=-76.2631648\CCSD(T)=-76.2682633\RMSD=5.702e-09\PG=CS [SG
 Normal termination of Gaussian 16 at Wed Feb  8 14:48:26 2023.
