 Gaussian 16, Revision C.01,
 Gaussian 16:  ES64L-G16RevC.01  3-Jul-2019

 -----------------------------------
 #P HF/aug-cc-pVDZ scf(maxcycle=200)
 -----------------------------------

 --------------
 Gaussian input
 --------------
 Symbolic Z-matrix:
 Charge =  0 Multiplicity = 1

                         Standard orientation:
 ---------------------------------------------------------------------
 Center     Atomic      Atomic             Coordinates (Angstroms)
 Number     Number       Type             X           Y           Z
 ---------------------------------------------------------------------
      1          8           0        0.000000    0.145771    0.000000
      2          1           0        0.660689   -0.616837   -0.000000
      3          1           0       -0.660689   -0.549334   -0.000000
 ---------------------------------------------------------------------

 SCF Done:  E(RHF) =  -76.0259341879     A.U. after   10 cycles

 The electronic state is 1-A'.
 Alpha  occ. eigenvalues --  -20.58953  -1.35929  -0.66372  -0.61991  -0.51295
 Alpha virt. eigenvalues --    0.03284   0.05957   0.17129   0.20016   0.22082
 Alpha virt. eigenvalues --    0.23795   0.27505   0.35873   0.36812   0.39457
 Alpha virt. eigenvalues --    0.40436   0.55435   0.63088   0.66025   0.76150

 Mulliken charges:
               1
     1  O   -0.343973
     2  H    0.195717
     3  H    0.148256
 Sum of Mulliken charges =   0.00000

 Dipole moment (field-independent basis, Debye):
    X=             -0.0333    Y=             -2.3227    Z=             -0.0000  Tot=              2.3229
 Quadrupole moment (field-independent basis, Debye-Ang):
   XX=             -5.1465   YY=             -5.6393   ZZ=             -7.6181
   XY=             -0.0830   XZ=              0.0000   YZ=              0.0000

 Normal termination of Gaussian 16 at Mon Feb 20 10:29:00 2023.
