 Gaussian 16, Revision C.01,
 Gaussian 16:  ES64L-G16RevC.01  3-Jul-2019

 ----------------------------------------
 #P CCSD(T)/aug-cc-pVTZ scf(maxcycle=200)
 ----------------------------------------

 --------------
 Gaussian input
 --------------
 Symbolic Z-matrix:
 Charge =  0 Multiplicity = 1

                         Standard orientation:
 ---------------------------------------------------------------------
 Center     Atomic      Atomic             Coordinates (Angstroms)
 Number     Number       Type             X           Y           Z
 ---------------------------------------------------------------------
      1          8           0        0.000000    0.000000    0.139759
      2          1           0       -0.000000    0.656786   -0.559036
      3          1           0       -0.000000   -0.656786   -0.559036
 ---------------------------------------------------------------------

 SCF Done:  E(RHF) =  -76.0499364610     A.U. after   10 cycles
 E2 =    -0.2706838490D+00 EUMP2 =    -0.76320620309973D+02
 CCSD(T)
 CCSD(T)= -0.76333715810D+02

 The electronic state is 1-A1.
 Alpha  occ. eigenvalues --  -20.57440  -1.36733  -0.67785  -0.62096  -0.51516
 Alpha virt. eigenvalues --    0.02801   0.04883   0.13257   0.16135   0.17761
 Alpha virt. eigenvalues --    0.18758   0.22181   0.24762   0.27192   0.28332
 Alpha virt. eigenvalues --    0.30204   0.37053   0.43230   0.46497   0.58915

 Mulliken charges:
               1
     1  O   -0.453210
     2  H    0.226605
     3  H    0.226605
 Sum of Mulliken charges =  -0.00000

 Dipole moment (field-independent basis, Debye):
    X=             -0.0000    Y=             -0.0000    Z=             -2.2582  Tot=              2.2582
 Quadrupole moment (field-independent basis, Debye-Ang):
   XX=             -7.5403   YY=             -5.0457   ZZ=             -5.6862
   XY=              0.0000   XZ=              0.0000   YZ=              0.0000

 3253778\CCSD=-76.3248664\CCSD(T)=-76.3337158\RMSD=3.222e-09\PG=C02V [C
 Normal termination of Gaussian 16 at Wed Feb  8 13:52:12 2023.
