 Gaussian 16, Revision C.01,
 Gaussian 16:  ES64L-G16RevC.01  3-Jul-2019

 ----------------------------------------
 #P CCSD(T)/aug-cc-pVDZ scf(maxcycle=200)
 ----------------------------------------

 --------------
 Gaussian input
 --------------
 Symbolic Z-matrix:
 Charge =  0 Multiplicity = 1

                         Standard orientation:
 ---------------------------------------------------------------------
 Center     Atomic      Atomic             Coordinates (Angstroms)
 Number     Number       Type             X           Y           Z
 ---------------------------------------------------------------------
      1          8           0        0.000000    0.137622    0.000000
      2          1           0        0.666206   -0.620171    0.000000
      3          1           0       -0.666206   -0.480804   -0.000000
 ---------------------------------------------------------------------

 SCF Done:  E(RHF) =  -76.0280471197     A.U. after   10 cycles
 E2 =    -0.2211223561D+00 EUMP2 =    -0.76249169475827D+02
 CCSD(T)
 CCSD(T)= -0.76262035945D+02

 The electronic state is 1-A'.
 Alpha  occ. eigenvalues --  -20.58343  -1.37100  -0.68564  -0.61585  -0.51392
 Alpha virt. eigenvalues --    0.03364   0.05936   0.17121   0.19851   0.22166
 Alpha virt. eigenvalues --    0.23615   0.28301   0.35756   0.37687   0.39265
 Alpha virt. eigenvalues --    0.41440   0.55438   0.63406   0.66247   0.78094

 Mulliken charges:
               1
     1  O   -0.288159
     2  H    0.193412
     3  H    0.094747
 Sum of Mulliken charges =   0.00000

 Dipole moment (field-independent basis, Debye):
    X=             -0.0630    Y=             -2.2427    Z=              0.0000  Tot=              2.2436
 Quadrupole moment (field-independent basis, Debye-Ang):
   XX=             -4.9964   YY=             -5.7541   ZZ=             -7.5636
   XY=             -0.1822   XZ=              0.0000   YZ=             -0.0000

 568706\CCSD=-76.2566571\CCSD(T)=-76.2620359\RMSD=7.540e-09\PG=CS [SG(H
 Normal termination of Gaussian 16 at Wed Feb  8 14:50:10 2023.
