 Gaussian 16, Revision C.01,
 Gaussian 16:  ES64L-G16RevC.01  3-Jul-2019

 ------------------------------------
 #P wB97XD/6-311g** scf(maxcycle=200)
 ------------------------------------

 --------------
 Gaussian input
 --------------
 Symbolic Z-matrix:
 Charge =  0 Multiplicity = 1

                         Standard orientation:
 ---------------------------------------------------------------------
 Center     Atomic      Atomic             Coordinates (Angstroms)
 Number     Number       Type             X           Y           Z
 ---------------------------------------------------------------------
      1          8           0        0.000000    0.000000    0.122709
      2          1           0       -0.000000    0.737052   -0.490835
      3          1           0       -0.000000   -0.737052   -0.490835
 ---------------------------------------------------------------------

 SCF Done:  E(RwB97XD) =  -76.4230272960     A.U. after   12 cycles

 The electronic state is 1-A1.
 Alpha  occ. eigenvalues --  -19.22801  -1.10609  -0.60285  -0.47084  -0.38752
 Alpha virt. eigenvalues --    0.11802   0.19229   0.45902   0.51874   0.85297
 Alpha virt. eigenvalues --    0.85450   0.95408   1.15852   1.27484   1.36379
 Alpha virt. eigenvalues --    1.52580   1.77288   2.00207   2.16084   2.37405

 Mulliken charges:
               1
     1  O   -0.472258
     2  H    0.236129
     3  H    0.236129
 Sum of Mulliken charges =  -0.00000

 Dipole moment (field-independent basis, Debye):
    X=             -0.0000    Y=             -0.0000    Z=             -2.1484  Tot=              2.1484
 Quadrupole moment (field-independent basis, Debye-Ang):
   XX=             -7.1671   YY=             -4.3943   ZZ=             -5.9243
   XY=              0.0000   XZ=              0.0000   YZ=              0.0000

 Normal termination of Gaussian 16 at Wed Feb  8 14:41:28 2023.
