 Gaussian 16, Revision C.01,
 Gaussian 16:  ES64L-G16RevC.01  3-Jul-2019

 ------------------------------------
 #P wB97XD/6-311g** scf(maxcycle=200)
 ------------------------------------

 --------------
 Gaussian input
 --------------
 Symbolic Z-matrix:
 Charge =  0 Multiplicity = 1

                         Standard orientation:
 ---------------------------------------------------------------------
 Center     Atomic      Atomic             Coordinates (Angstroms)
 Number     Number       Type             X           Y           Z
 ---------------------------------------------------------------------
      1          8           0        0.000000    0.122949   -0.000000
      2          1           0        0.733611   -0.569796   -0.000000
      3          1           0       -0.733611   -0.413797    0.000000
 ---------------------------------------------------------------------

 SCF Done:  E(RwB97XD) =  -76.4180076207     A.U. after   12 cycles

 The electronic state is 1-A'.
 Alpha  occ. eigenvalues --  -19.22750  -1.10818  -0.60283  -0.47074  -0.38769
 Alpha virt. eigenvalues --    0.11573   0.19301   0.44870   0.53171   0.85267
 Alpha virt. eigenvalues --    0.85404   0.95449   1.15941   1.27650   1.36485
 Alpha virt. eigenvalues --    1.52750   1.77129   1.97895   2.17278   2.38484

 Mulliken charges:
               1
     1  O   -0.473960
     2  H    0.235695
     3  H    0.238266
 Sum of Mulliken charges =  -0.00000

 Dipole moment (field-independent basis, Debye):
    X=             -0.0885    Y=             -2.1475    Z=              0.0000  Tot=              2.1494
 Quadrupole moment (field-independent basis, Debye-Ang):
   XX=             -4.4110   YY=             -5.8985   ZZ=             -7.1652
   XY=             -0.2228   XZ=              0.0000   YZ=              0.0000

 Normal termination of Gaussian 16 at Wed Feb  8 14:42:08 2023.
