 Gaussian 16, Revision C.01,
 Gaussian 16:  ES64L-G16RevC.01  3-Jul-2019

 ----------------------------------------
 #P CCSD(T)/aug-cc-pVDZ scf(maxcycle=200)
 ----------------------------------------

 --------------
 Gaussian input
 --------------
 Symbolic Z-matrix:
 Charge =  0 Multiplicity = 1

                         Standard orientation:
 ---------------------------------------------------------------------
 Center     Atomic      Atomic             Coordinates (Angstroms)
 Number     Number       Type             X           Y           Z
 ---------------------------------------------------------------------
      1          8           0        0.000000    0.000000    0.111364
      2          1           0        0.000000    0.718494   -0.445455
      3          1           0       -0.000000   -0.718494   -0.445455
 ---------------------------------------------------------------------

 SCF Done:  E(RHF) =  -76.0387853993     A.U. after   10 cycles
 E2 =    -0.2151731854D+00 EUMP2 =    -0.76253958584747D+02
 CCSD(T)
 CCSD(T)= -0.76266843366D+02

 The electronic state is 1-A1.
 Alpha  occ. eigenvalues --  -20.56877  -1.38326  -0.74653  -0.59498  -0.51378
 Alpha virt. eigenvalues --    0.03618   0.05815   0.17263   0.19421   0.22554
 Alpha virt. eigenvalues --    0.22988   0.30442   0.33862   0.38938   0.41136
 Alpha virt. eigenvalues --    0.44126   0.54642   0.65792   0.66002   0.83962

 Mulliken charges:
               1
     1  O   -0.187087
     2  H    0.093543
     3  H    0.093543
 Sum of Mulliken charges =   0.00000

 Dipole moment (field-independent basis, Debye):
    X=             -0.0000    Y=              0.0000    Z=             -1.9599  Tot=              1.9599
 Quadrupole moment (field-independent basis, Debye-Ang):
   XX=             -7.4707   YY=             -4.3902   ZZ=             -6.2314
   XY=              0.0000   XZ=              0.0000   YZ=             -0.0000

 2621625\CCSD=-76.2619754\CCSD(T)=-76.2668434\RMSD=3.687e-09\PG=C02V [C
 Normal termination of Gaussian 16 at Wed Feb  8 14:47:01 2023.
