 Gaussian 16, Revision C.01,
 Gaussian 16:  ES64L-G16RevC.01  3-Jul-2019

 ----------------------------------------
 #P CCSD(T)/aug-cc-pVTZ scf(maxcycle=200)
 ----------------------------------------

 --------------
 Gaussian input
 --------------
 Symbolic Z-matrix:
 Charge =  0 Multiplicity = 1

                         Standard orientation:
 ---------------------------------------------------------------------
 Center     Atomic      Atomic             Coordinates (Angstroms)
 Number     Number       Type             X           Y           Z
 ---------------------------------------------------------------------
      1          8           0       -0.000000    0.000000    0.103691
      2          1           0       -0.000000    0.746651   -0.414762
      3          1           0       -0.000000   -0.746651   -0.414762
 ---------------------------------------------------------------------

 SCF Done:  E(RHF) =  -76.0585688741     A.U. after   10 cycles
 E2 =    -0.2642723495D+00 EUMP2 =    -0.76322841223521D+02
 CCSD(T)
 CCSD(T)= -0.76336141516D+02

 The electronic state is 1-A1.
 Alpha  occ. eigenvalues --  -20.55585  -1.37550  -0.75752  -0.58236  -0.51310
 Alpha virt. eigenvalues --    0.03036   0.04751   0.13668   0.15485   0.17529
 Alpha virt. eigenvalues --    0.18126   0.23337   0.24653   0.26378   0.30950
 Alpha virt. eigenvalues --    0.31666   0.36638   0.44870   0.47352   0.60780

 Mulliken charges:
               1
     1  O   -0.347707
     2  H    0.173853
     3  H    0.173853
 Sum of Mulliken charges =   0.00000

 Dipole moment (field-independent basis, Debye):
    X=             -0.0000    Y=             -0.0000    Z=             -1.8439  Tot=              1.8439
 Quadrupole moment (field-independent basis, Debye-Ang):
   XX=             -7.4531   YY=             -4.1169   ZZ=             -6.3775
   XY=              0.0000   XZ=              0.0000   YZ=              0.0000

 28438\CCSD=-76.3280122\CCSD(T)=-76.3361415\RMSD=2.187e-09\PG=C02V [C2(
 Normal termination of Gaussian 16 at Wed Feb  8 13:48:27 2023.
