 Gaussian 16, Revision C.01,
 Gaussian 16:  ES64L-G16RevC.01  3-Jul-2019

 ----------------------------------------
 #P CCSD(T)/aug-cc-pVTZ scf(maxcycle=200)
 ----------------------------------------

 --------------
 Gaussian input
 --------------
 Symbolic Z-matrix:
 Charge =  0 Multiplicity = 1

                         Standard orientation:
 ---------------------------------------------------------------------
 Center     Atomic      Atomic             Coordinates (Angstroms)
 Number     Number       Type             X           Y           Z
 ---------------------------------------------------------------------
      1          8           0       -0.000000    0.000000    0.142133
      2          1           0        0.000000    0.716267   -0.568531
      3          1           0       -0.000000   -0.716267   -0.568531
 ---------------------------------------------------------------------

 SCF Done:  E(RHF) =  -76.0475152407     A.U. after   10 cycles
 E2 =    -0.2742903904D+00 EUMP2 =    -0.76321805631130D+02
 CCSD(T)
 CCSD(T)= -0.76335008739D+02

 The electronic state is 1-A1.
 Alpha  occ. eigenvalues --  -20.58199  -1.33825  -0.66360  -0.60220  -0.51061
 Alpha virt. eigenvalues --    0.02768   0.04839   0.13297   0.16290   0.17580
 Alpha virt. eigenvalues --    0.18645   0.21741   0.24475   0.27054   0.28444
 Alpha virt. eigenvalues --    0.30231   0.36624   0.42512   0.45255   0.58966

 Mulliken charges:
               1
     1  O   -0.508181
     2  H    0.254091
     3  H    0.254091
 Sum of Mulliken charges =   0.00000

 Dipole moment (field-independent basis, Debye):
    X=             -0.0000    Y=              0.0000    Z=             -2.2480  Tot=              2.2480
 Quadrupole moment (field-independent basis, Debye-Ang):
   XX=             -7.6545   YY=             -4.8073   ZZ=             -5.8050
   XY=              0.0000   XZ=              0.0000   YZ=             -0.0000

 262465\CCSD=-76.3256818\CCSD(T)=-76.3350087\RMSD=5.597e-09\PG=C02V [C2
 Normal termination of Gaussian 16 at Wed Feb  8 13:57:21 2023.
