 Gaussian 16, Revision C.01,
 Gaussian 16:  ES64L-G16RevC.01  3-Jul-2019

 ---------------------------------
 #P B3LYP/6-31g* scf(maxcycle=200)
 ---------------------------------

 --------------
 Gaussian input
 --------------
 Symbolic Z-matrix:
 Charge =  0 Multiplicity = 1

                         Standard orientation:
 ---------------------------------------------------------------------
 Center     Atomic      Atomic             Coordinates (Angstroms)
 Number     Number       Type             X           Y           Z
 ---------------------------------------------------------------------
      1          8           0        0.000000    0.095676    0.000000
      2          1           0        0.801093   -0.431515   -0.000000
      3          1           0       -0.801093   -0.333894    0.000000
 ---------------------------------------------------------------------

 SCF Done:  E(RB3LYP) =  -76.4006894042     A.U. after    9 cycles

 The electronic state is 1-A'.
 Alpha  occ. eigenvalues --  -19.12393  -1.00088  -0.55426  -0.34501  -0.28884
 Alpha virt. eigenvalues --    0.07183   0.16329   0.81708   0.87229   0.89351
 Alpha virt. eigenvalues --    0.89413   1.08998   1.16522   1.72654   1.76628
 Alpha virt. eigenvalues --    1.79215   2.36101   2.61125   3.59553

 Mulliken charges:
               1
     1  O   -0.805762
     2  H    0.401795
     3  H    0.403967
 Sum of Mulliken charges =  -0.00000

 Dipole moment (field-independent basis, Debye):
    X=             -0.0382    Y=             -1.8328    Z=             -0.0000  Tot=              1.8332
 Quadrupole moment (field-independent basis, Debye-Ang):
   XX=             -3.7252   YY=             -6.3110   ZZ=             -7.1305
   XY=             -0.1746   XZ=             -0.0000   YZ=              0.0000

 Normal termination of Gaussian 16 at Wed Feb  8 14:51:00 2023.
