 Gaussian 16, Revision C.01,
 Gaussian 16:  ES64L-G16RevC.01  3-Jul-2019

 ----------------------------------------
 #P CCSD(T)/aug-cc-pVTZ scf(maxcycle=200)
 ----------------------------------------

 --------------
 Gaussian input
 --------------
 Symbolic Z-matrix:
 Charge =  0 Multiplicity = 1

                         Standard orientation:
 ---------------------------------------------------------------------
 Center     Atomic      Atomic             Coordinates (Angstroms)
 Number     Number       Type             X           Y           Z
 ---------------------------------------------------------------------
      1          8           0        0.000000   -0.000000    0.147046
      2          1           0        0.000000    0.691029   -0.588182
      3          1           0       -0.000000   -0.691029   -0.588182
 ---------------------------------------------------------------------

 SCF Done:  E(RHF) =  -76.0440024826     A.U. after   10 cycles
 E2 =    -0.2749500004D+00 EUMP2 =    -0.76318952483016D+02
 CCSD(T)
 CCSD(T)= -0.76332057375D+02

 The electronic state is 1-A1.
 Alpha  occ. eigenvalues --  -20.58341  -1.34134  -0.65523  -0.61015  -0.51170
 Alpha virt. eigenvalues --    0.02732   0.04865   0.13203   0.16339   0.17613
 Alpha virt. eigenvalues --    0.18750   0.21608   0.24541   0.27201   0.28085
 Alpha virt. eigenvalues --    0.30117   0.36731   0.42313   0.45141   0.58807

 Mulliken charges:
               1
     1  O   -0.510580
     2  H    0.255290
     3  H    0.255290
 Sum of Mulliken charges =  -0.00000

 Dipole moment (field-independent basis, Debye):
    X=             -0.0000    Y=              0.0000    Z=             -2.3067  Tot=              2.3067
 Quadrupole moment (field-independent basis, Debye-Ang):
   XX=             -7.6504   YY=             -5.0012   ZZ=             -5.6724
   XY=              0.0000   XZ=              0.0000   YZ=             -0.0000

 .3232397\CCSD=-76.3226616\CCSD(T)=-76.3320574\RMSD=5.140e-09\PG=C02V [
 Normal termination of Gaussian 16 at Wed Feb  8 13:58:13 2023.
