 Gaussian 16, Revision C.01,
 Gaussian 16:  ES64L-G16RevC.01  3-Jul-2019

 -----------------------------------
 #P HF/aug-cc-pVDZ scf(maxcycle=200)
 -----------------------------------

 --------------
 Gaussian input
 --------------
 Symbolic Z-matrix:
 Charge =  0 Multiplicity = 1

                         Standard orientation:
 ---------------------------------------------------------------------
 Center     Atomic      Atomic             Coordinates (Angstroms)
 Number     Number       Type             X           Y           Z
 ---------------------------------------------------------------------
      1          8           0        0.000000    0.092865    0.000000
      2          1           0        0.809229   -0.321174    0.000000
      3          1           0       -0.809229   -0.421750    0.000000
 ---------------------------------------------------------------------

 SCF Done:  E(RHF) =  -76.0352886489     A.U. after   10 cycles

 The electronic state is 1-A'.
 Alpha  occ. eigenvalues --  -20.56549  -1.35849  -0.76154  -0.55900  -0.50689
 Alpha virt. eigenvalues --    0.03690   0.05668   0.17522   0.19355   0.22040
 Alpha virt. eigenvalues --    0.22577   0.30492   0.31579   0.37902   0.44065
 Alpha virt. eigenvalues --    0.46288   0.52592   0.65010   0.66168   0.86329

 Mulliken charges:
               1
     1  O   -0.292161
     2  H    0.115097
     3  H    0.177064
 Sum of Mulliken charges =   0.00000

 Dipole moment (field-independent basis, Debye):
    X=              0.0127    Y=             -1.7017    Z=              0.0000  Tot=              1.7017
 Quadrupole moment (field-independent basis, Debye-Ang):
   XX=             -3.6919   YY=             -6.6963   ZZ=             -7.5666
   XY=              0.2072   XZ=              0.0000   YZ=              0.0000

 Normal termination of Gaussian 16 at Mon Feb 20 10:15:06 2023.
