 Gaussian 16, Revision C.01,
 Gaussian 16:  ES64L-G16RevC.01  3-Jul-2019

 ----------------------------------------
 #P CCSD(T)/aug-cc-pVTZ scf(maxcycle=200)
 ----------------------------------------

 --------------
 Gaussian input
 --------------
 Symbolic Z-matrix:
 Charge =  0 Multiplicity = 1

                         Standard orientation:
 ---------------------------------------------------------------------
 Center     Atomic      Atomic             Coordinates (Angstroms)
 Number     Number       Type             X           Y           Z
 ---------------------------------------------------------------------
      1          8           0        0.000000    0.000000    0.123615
      2          1           0        0.000000    0.797536   -0.494460
      3          1           0       -0.000000   -0.797536   -0.494460
 ---------------------------------------------------------------------

 SCF Done:  E(RHF) =  -76.0525106953     A.U. after   10 cycles
 E2 =    -0.2725675564D+00 EUMP2 =    -0.76325078251774D+02
 CCSD(T)
 CCSD(T)= -0.76338477581D+02

 The electronic state is 1-A1.
 Alpha  occ. eigenvalues --  -20.57603  -1.32854  -0.69031  -0.57511  -0.50641
 Alpha virt. eigenvalues --    0.02872   0.04746   0.13558   0.16104   0.17321
 Alpha virt. eigenvalues --    0.18283   0.22259   0.24285   0.26498   0.29816
 Alpha virt. eigenvalues --    0.30861   0.36411   0.42737   0.45602   0.59708

 Mulliken charges:
               1
     1  O   -0.509168
     2  H    0.254584
     3  H    0.254584
 Sum of Mulliken charges =   0.00000

 Dipole moment (field-independent basis, Debye):
    X=             -0.0000    Y=              0.0000    Z=             -2.0248  Tot=              2.0248
 Quadrupole moment (field-independent basis, Debye-Ang):
   XX=             -7.6751   YY=             -4.1250   ZZ=             -6.2695
   XY=              0.0000   XZ=              0.0000   YZ=             -0.0000

 3298513\CCSD=-76.3293149\CCSD(T)=-76.3384776\RMSD=6.210e-09\PG=C02V [C
 Normal termination of Gaussian 16 at Wed Feb  8 13:57:51 2023.
