 Gaussian 16, Revision C.01,
 Gaussian 16:  ES64L-G16RevC.01  3-Jul-2019

 ------------------------------
 #P HF/6-31g* scf(maxcycle=200)
 ------------------------------

 --------------
 Gaussian input
 --------------
 Symbolic Z-matrix:
 Charge =  0 Multiplicity = 1

                         Standard orientation:
 ---------------------------------------------------------------------
 Center     Atomic      Atomic             Coordinates (Angstroms)
 Number     Number       Type             X           Y           Z
 ---------------------------------------------------------------------
      1          8           0        0.000000    0.000000    0.103255
      2          1           0        0.000000    0.866916   -0.413018
      3          1           0       -0.000000   -0.866916   -0.413018
 ---------------------------------------------------------------------

 SCF Done:  E(RHF) =  -75.9977974816     A.U. after   10 cycles

 The electronic state is 1-A1.
 Alpha  occ. eigenvalues --  -20.56048  -1.30586  -0.69965  -0.53375  -0.48784
 Alpha virt. eigenvalues --    0.19661   0.29268   1.02329   1.06838   1.15896
 Alpha virt. eigenvalues --    1.17288   1.38205   1.38796   2.03753   2.07017
 Alpha virt. eigenvalues --    2.09211   2.60634   2.82287   3.96479

 Mulliken charges:
               1
     1  O   -0.890698
     2  H    0.445349
     3  H    0.445349
 Sum of Mulliken charges =  -0.00000

 Dipole moment (field-independent basis, Debye):
    X=             -0.0000    Y=              0.0000    Z=             -2.0023  Tot=              2.0023
 Quadrupole moment (field-independent basis, Debye-Ang):
   XX=             -7.3349   YY=             -3.3279   ZZ=             -6.3818
   XY=              0.0000   XZ=              0.0000   YZ=             -0.0000

 Normal termination of Gaussian 16 at Wed Feb  8 15:07:42 2023.
