 Gaussian 16, Revision C.01,
 Gaussian 16:  ES64L-G16RevC.01  3-Jul-2019

 ----------------------------------------
 #P PBE1PBE/aug-cc-pVDZ scf(maxcycle=200)
 ----------------------------------------

 --------------
 Gaussian input
 --------------
 Symbolic Z-matrix:
 Charge =  0 Multiplicity = 1

                         Standard orientation:
 ---------------------------------------------------------------------
 Center     Atomic      Atomic             Coordinates (Angstroms)
 Number     Number       Type             X           Y           Z
 ---------------------------------------------------------------------
      1          8           0        0.000000    0.000000    0.137445
      2          1           0        0.000000    0.668881   -0.549780
      3          1           0       -0.000000   -0.668881   -0.549780
 ---------------------------------------------------------------------

 SCF Done:  E(RPBE1PBE) =  -76.3529723334     A.U. after    8 cycles

 The electronic state is 1-A1.
 Alpha  occ. eigenvalues --  -19.23627  -1.06118  -0.51924  -0.44251  -0.33643
 Alpha virt. eigenvalues --   -0.01460   0.03429   0.10914   0.13309   0.14765
 Alpha virt. eigenvalues --    0.16665   0.18502   0.26226   0.27840   0.30137
 Alpha virt. eigenvalues --    0.31237   0.46866   0.51030   0.54727   0.60750

 Mulliken charges:
               1
     1  O   -0.215819
     2  H    0.107909
     3  H    0.107909
 Sum of Mulliken charges =  -0.00000

 Dipole moment (field-independent basis, Debye):
    X=             -0.0000    Y=              0.0000    Z=             -2.0834  Tot=              2.0834
 Quadrupole moment (field-independent basis, Debye-Ang):
   XX=             -7.7173   YY=             -5.1442   ZZ=             -5.9586
   XY=              0.0000   XZ=              0.0000   YZ=             -0.0000

 Normal termination of Gaussian 16 at Mon Mar 20 17:34:22 2023.
