 Gaussian 16, Revision C.01,
 Gaussian 16:  ES64L-G16RevC.01  3-Jul-2019

 ----------------------------------------
 #P CCSD(T)/aug-cc-pVTZ scf(maxcycle=200)
 ----------------------------------------

 --------------
 Gaussian input
 --------------
 Symbolic Z-matrix:
 Charge =  0 Multiplicity = 1

                         Standard orientation:
 ---------------------------------------------------------------------
 Center     Atomic      Atomic             Coordinates (Angstroms)
 Number     Number       Type             X           Y           Z
 ---------------------------------------------------------------------
      1          8           0        0.000000    0.094835   -0.000000
      2          1           0        0.861015   -0.431220   -0.000000
      3          1           0       -0.861015   -0.327461    0.000000
 ---------------------------------------------------------------------

 SCF Done:  E(RHF) =  -76.0491955140     A.U. after   10 cycles
 E2 =    -0.2698701931D+00 EUMP2 =    -0.76319065707167D+02
 CCSD(T)
 CCSD(T)= -0.76332344712D+02

 The electronic state is 1-A'.
 Alpha  occ. eigenvalues --  -20.56232  -1.32927  -0.73217  -0.54620  -0.50219
 Alpha virt. eigenvalues --    0.02990   0.04652   0.13776   0.15690   0.16795
 Alpha virt. eigenvalues --    0.17912   0.23129   0.24059   0.25860   0.31968
 Alpha virt. eigenvalues --    0.32476   0.36258   0.42572   0.46302   0.61194

 Mulliken charges:
               1
     1  O   -0.491494
     2  H    0.265316
     3  H    0.226179
 Sum of Mulliken charges =  -0.00000

 Dipole moment (field-independent basis, Debye):
    X=             -0.0077    Y=             -1.6745    Z=              0.0000  Tot=              1.6745
 Quadrupole moment (field-independent basis, Debye-Ang):
   XX=             -3.3844   YY=             -6.7936   ZZ=             -7.6593
   XY=             -0.2239   XZ=             -0.0000   YZ=              0.0000

 .3239933\CCSD=-76.3234862\CCSD(T)=-76.3323447\RMSD=4.013e-09\PG=CS [SG
 Normal termination of Gaussian 16 at Wed Feb  8 13:57:11 2023.
