 Gaussian 16, Revision C.01,
 Gaussian 16:  ES64L-G16RevC.01  3-Jul-2019

 ---------------------------------
 #P B3LYP/6-31g* scf(maxcycle=200)
 ---------------------------------

 --------------
 Gaussian input
 --------------
 Symbolic Z-matrix:
 Charge =  0 Multiplicity = 1

                         Standard orientation:
 ---------------------------------------------------------------------
 Center     Atomic      Atomic             Coordinates (Angstroms)
 Number     Number       Type             X           Y           Z
 ---------------------------------------------------------------------
      1          8           0        0.000000    0.135276    0.000000
      2          1           0        0.677987   -0.470211    0.000000
      3          1           0       -0.677987   -0.611996    0.000000
 ---------------------------------------------------------------------

 SCF Done:  E(RB3LYP) =  -76.3984475717     A.U. after   10 cycles

 The electronic state is 1-A'.
 Alpha  occ. eigenvalues --  -19.14243  -1.01741  -0.49573  -0.40033  -0.29642
 Alpha virt. eigenvalues --    0.05696   0.15105   0.73044   0.87800   0.88774
 Alpha virt. eigenvalues --    0.92775   1.06599   1.24446   1.69637   1.75208
 Alpha virt. eigenvalues --    1.76449   2.30472   2.56637   3.53159

 Mulliken charges:
               1
     1  O   -0.752111
     2  H    0.386656
     3  H    0.365456
 Sum of Mulliken charges =   0.00000

 Dipole moment (field-independent basis, Debye):
    X=              0.1080    Y=             -2.2762    Z=              0.0000  Tot=              2.2787
 Quadrupole moment (field-independent basis, Debye-Ang):
   XX=             -4.8991   YY=             -5.6288   ZZ=             -7.1878
   XY=              0.1510   XZ=              0.0000   YZ=              0.0000

 Normal termination of Gaussian 16 at Wed Feb  8 14:50:19 2023.
