 Gaussian 16, Revision C.01,
 Gaussian 16:  ES64L-G16RevC.01  3-Jul-2019

 ------------------------------
 #P HF/6-31g* scf(maxcycle=200)
 ------------------------------

 --------------
 Gaussian input
 --------------
 Symbolic Z-matrix:
 Charge =  0 Multiplicity = 1

                         Standard orientation:
 ---------------------------------------------------------------------
 Center     Atomic      Atomic             Coordinates (Angstroms)
 Number     Number       Type             X           Y           Z
 ---------------------------------------------------------------------
      1          8           0       -0.000000    0.000000    0.137047
      2          1           0        0.000000    0.740632   -0.548187
      3          1           0       -0.000000   -0.740632   -0.548187
 ---------------------------------------------------------------------

 SCF Done:  E(RHF) =  -76.0011655634     A.U. after   10 cycles

 The electronic state is 1-A1.
 Alpha  occ. eigenvalues --  -20.57614  -1.32506  -0.66160  -0.58201  -0.49902
 Alpha virt. eigenvalues --    0.19742   0.28689   0.96490   1.11959   1.14713
 Alpha virt. eigenvalues --    1.16475   1.35685   1.47623   2.00935   2.05264
 Alpha virt. eigenvalues --    2.06504   2.57259   2.82599   3.92502

 Mulliken charges:
               1
     1  O   -0.838639
     2  H    0.419320
     3  H    0.419320
 Sum of Mulliken charges =  -0.00000

 Dipole moment (field-independent basis, Debye):
    X=             -0.0000    Y=             -0.0000    Z=             -2.4339  Tot=              2.4339
 Quadrupole moment (field-independent basis, Debye-Ang):
   XX=             -7.3344   YY=             -4.5408   ZZ=             -5.6963
   XY=              0.0000   XZ=              0.0000   YZ=             -0.0000

 Normal termination of Gaussian 16 at Wed Feb  8 15:07:21 2023.
