 Gaussian 16, Revision C.01,
 Gaussian 16:  ES64L-G16RevC.01  3-Jul-2019

 ------------------------------
 #P HF/6-31g* scf(maxcycle=200)
 ------------------------------

 --------------
 Gaussian input
 --------------
 Symbolic Z-matrix:
 Charge =  0 Multiplicity = 1

                         Standard orientation:
 ---------------------------------------------------------------------
 Center     Atomic      Atomic             Coordinates (Angstroms)
 Number     Number       Type             X           Y           Z
 ---------------------------------------------------------------------
      1          8           0       -0.000000    0.000000    0.135089
      2          1           0        0.000000    0.680773   -0.540358
      3          1           0       -0.000000   -0.680773   -0.540358
 ---------------------------------------------------------------------

 SCF Done:  E(RHF) =  -76.0037206168     A.U. after   10 cycles

 The electronic state is 1-A1.
 Alpha  occ. eigenvalues --  -20.56787  -1.35401  -0.67716  -0.60023  -0.50315
 Alpha virt. eigenvalues --    0.20595   0.30221   0.97242   1.12804   1.16410
 Alpha virt. eigenvalues --    1.21000   1.36941   1.48908   1.98957   2.04572
 Alpha virt. eigenvalues --    2.05136   2.65830   2.88508   3.93981

 Mulliken charges:
               1
     1  O   -0.842245
     2  H    0.421122
     3  H    0.421122
 Sum of Mulliken charges =  -0.00000

 Dipole moment (field-independent basis, Debye):
    X=             -0.0000    Y=             -0.0000    Z=             -2.4574  Tot=              2.4574
 Quadrupole moment (field-independent basis, Debye-Ang):
   XX=             -7.2341   YY=             -4.7872   ZZ=             -5.5877
   XY=              0.0000   XZ=              0.0000   YZ=              0.0000

 Normal termination of Gaussian 16 at Wed Feb  8 15:06:02 2023.
