 Gaussian 16, Revision C.01,
 Gaussian 16:  ES64L-G16RevC.01  3-Jul-2019

 ------------------------------------
 #P wB97XD/6-311g** scf(maxcycle=200)
 ------------------------------------

 --------------
 Gaussian input
 --------------
 Symbolic Z-matrix:
 Charge =  0 Multiplicity = 1

                         Standard orientation:
 ---------------------------------------------------------------------
 Center     Atomic      Atomic             Coordinates (Angstroms)
 Number     Number       Type             X           Y           Z
 ---------------------------------------------------------------------
      1          8           0        0.000000    0.127996    0.000000
      2          1           0        0.712035   -0.437060    0.000000
      3          1           0       -0.712035   -0.586908    0.000000
 ---------------------------------------------------------------------

 SCF Done:  E(RwB97XD) =  -76.4168826600     A.U. after   12 cycles

 The electronic state is 1-A'.
 Alpha  occ. eigenvalues --  -19.22945  -1.11163  -0.59522  -0.47889  -0.38885
 Alpha virt. eigenvalues --    0.11447   0.19309   0.44461   0.53820   0.85344
 Alpha virt. eigenvalues --    0.85457   0.95630   1.16410   1.22259   1.37930
 Alpha virt. eigenvalues --    1.50401   1.80058   1.96382   2.18252   2.38548

 Mulliken charges:
               1
     1  O   -0.459522
     2  H    0.231358
     3  H    0.228164
 Sum of Mulliken charges =  -0.00000

 Dipole moment (field-independent basis, Debye):
    X=              0.0909    Y=             -2.1947    Z=              0.0000  Tot=              2.1966
 Quadrupole moment (field-independent basis, Debye-Ang):
   XX=             -4.5828   YY=             -5.7943   ZZ=             -7.1618
   XY=              0.1989   XZ=              0.0000   YZ=              0.0000

 Normal termination of Gaussian 16 at Wed Feb  8 14:40:41 2023.
