 Gaussian 16, Revision C.01,
 Gaussian 16:  ES64L-G16RevC.01  3-Jul-2019

 ----------------------------------------
 #P PBE1PBE/aug-cc-pVDZ scf(maxcycle=200)
 ----------------------------------------

 --------------
 Gaussian input
 --------------
 Symbolic Z-matrix:
 Charge =  0 Multiplicity = 1

                         Standard orientation:
 ---------------------------------------------------------------------
 Center     Atomic      Atomic             Coordinates (Angstroms)
 Number     Number       Type             X           Y           Z
 ---------------------------------------------------------------------
      1          8           0        0.000000   -0.000000    0.147046
      2          1           0        0.000000    0.691029   -0.588182
      3          1           0       -0.000000   -0.691029   -0.588182
 ---------------------------------------------------------------------

 SCF Done:  E(RPBE1PBE) =  -76.3492989680     A.U. after    8 cycles

 The electronic state is 1-A1.
 Alpha  occ. eigenvalues --  -19.24464  -1.04022  -0.49862  -0.44180  -0.33308
 Alpha virt. eigenvalues --   -0.01924   0.03194   0.10553   0.13400   0.14385
 Alpha virt. eigenvalues --    0.14889   0.18421   0.25796   0.26925   0.29863
 Alpha virt. eigenvalues --    0.30272   0.46226   0.49340   0.52675   0.60578

 Mulliken charges:
               1
     1  O   -0.313526
     2  H    0.156763
     3  H    0.156763
 Sum of Mulliken charges =  -0.00000

 Dipole moment (field-independent basis, Debye):
    X=             -0.0000    Y=              0.0000    Z=             -2.1370  Tot=              2.1370
 Quadrupole moment (field-independent basis, Debye-Ang):
   XX=             -7.8323   YY=             -5.1907   ZZ=             -5.8905
   XY=              0.0000   XZ=              0.0000   YZ=             -0.0000

 Normal termination of Gaussian 16 at Mon Mar 20 17:35:44 2023.
