 Gaussian 16, Revision C.01,
 Gaussian 16:  ES64L-G16RevC.01  3-Jul-2019

 ------------------------------------
 #P wB97XD/6-311g** scf(maxcycle=200)
 ------------------------------------

 --------------
 Gaussian input
 --------------
 Symbolic Z-matrix:
 Charge =  0 Multiplicity = 1

                         Standard orientation:
 ---------------------------------------------------------------------
 Center     Atomic      Atomic             Coordinates (Angstroms)
 Number     Number       Type             X           Y           Z
 ---------------------------------------------------------------------
      1          8           0       -0.000000    0.000000    0.125263
      2          1           0       -0.000000    0.726232   -0.501051
      3          1           0       -0.000000   -0.726232   -0.501051
 ---------------------------------------------------------------------

 SCF Done:  E(RwB97XD) =  -76.4225620341     A.U. after   12 cycles

 The electronic state is 1-A1.
 Alpha  occ. eigenvalues --  -19.22899  -1.10780  -0.59906  -0.47492  -0.38810
 Alpha virt. eigenvalues --    0.11743   0.19229   0.45609   0.52303   0.85391
 Alpha virt. eigenvalues --    0.85420   0.95510   1.16073   1.24681   1.37098
 Alpha virt. eigenvalues --    1.51405   1.78737   1.99404   2.16594   2.37325

 Mulliken charges:
               1
     1  O   -0.464963
     2  H    0.232482
     3  H    0.232482
 Sum of Mulliken charges =  -0.00000

 Dipole moment (field-independent basis, Debye):
    X=             -0.0000    Y=             -0.0000    Z=             -2.1727  Tot=              2.1727
 Quadrupole moment (field-independent basis, Debye-Ang):
   XX=             -7.1654   YY=             -4.4817   ZZ=             -5.8708
   XY=              0.0000   XZ=              0.0000   YZ=             -0.0000

 Normal termination of Gaussian 16 at Wed Feb  8 14:41:36 2023.
