 Gaussian 16, Revision C.01,
 Gaussian 16:  ES64L-G16RevC.01  3-Jul-2019

 ----------------------------------------
 #P CCSD(T)/aug-cc-pVDZ scf(maxcycle=200)
 ----------------------------------------

 --------------
 Gaussian input
 --------------
 Symbolic Z-matrix:
 Charge =  0 Multiplicity = 1

                         Standard orientation:
 ---------------------------------------------------------------------
 Center     Atomic      Atomic             Coordinates (Angstroms)
 Number     Number       Type             X           Y           Z
 ---------------------------------------------------------------------
      1          8           0        0.000000    0.000000    0.100213
      2          1           0        0.000000    0.875794   -0.400852
      3          1           0       -0.000000   -0.875794   -0.400852
 ---------------------------------------------------------------------

 SCF Done:  E(RHF) =  -76.0272457630     A.U. after   10 cycles
 E2 =    -0.2233696268D+00 EUMP2 =    -0.76250615389878D+02
 CCSD(T)
 CCSD(T)= -0.76263669746D+02

 The electronic state is 1-A1.
 Alpha  occ. eigenvalues --  -20.57672  -1.32158  -0.71670  -0.54588  -0.49987
 Alpha virt. eigenvalues --    0.03535   0.05619   0.17693   0.19784   0.21160
 Alpha virt. eigenvalues --    0.22710   0.28935   0.30381   0.37298   0.42974
 Alpha virt. eigenvalues --    0.45145   0.51364   0.63434   0.64957   0.83600

 Mulliken charges:
               1
     1  O   -0.457650
     2  H    0.228825
     3  H    0.228825
 Sum of Mulliken charges =  -0.00000

 Dipole moment (field-independent basis, Debye):
    X=             -0.0000    Y=              0.0000    Z=             -1.7447  Tot=              1.7447
 Quadrupole moment (field-independent basis, Debye-Ang):
   XX=             -7.7496   YY=             -3.3918   ZZ=             -6.8035
   XY=              0.0000   XZ=              0.0000   YZ=             -0.0000

 .2583386\CCSD=-76.2581078\CCSD(T)=-76.2636697\RMSD=7.352e-09\PG=C02V [
 Normal termination of Gaussian 16 at Wed Feb  8 14:51:22 2023.
