 Gaussian 16, Revision C.01,
 Gaussian 16:  ES64L-G16RevC.01  3-Jul-2019

 ---------------------------------
 #P B3LYP/6-31g* scf(maxcycle=200)
 ---------------------------------

 --------------
 Gaussian input
 --------------
 Symbolic Z-matrix:
 Charge =  0 Multiplicity = 1

                         Standard orientation:
 ---------------------------------------------------------------------
 Center     Atomic      Atomic             Coordinates (Angstroms)
 Number     Number       Type             X           Y           Z
 ---------------------------------------------------------------------
      1          8           0        0.000000   -0.000000    0.142030
      2          1           0        0.000000    0.644490   -0.568120
      3          1           0       -0.000000   -0.644490   -0.568120
 ---------------------------------------------------------------------

 SCF Done:  E(RB3LYP) =  -76.3972920347     A.U. after   10 cycles

 The electronic state is 1-A1.
 Alpha  occ. eigenvalues --  -19.14527  -1.02208  -0.48271  -0.41335  -0.29798
 Alpha virt. eigenvalues --    0.05670   0.14836   0.72727   0.87085   0.88642
 Alpha virt. eigenvalues --    0.92488   1.05617   1.25503   1.69557   1.75477
 Alpha virt. eigenvalues --    1.75997   2.37595   2.49615   3.51582

 Mulliken charges:
               1
     1  O   -0.744734
     2  H    0.372367
     3  H    0.372367
 Sum of Mulliken charges =   0.00000

 Dipole moment (field-independent basis, Debye):
    X=             -0.0000    Y=             -0.0000    Z=             -2.3571  Tot=              2.3571
 Quadrupole moment (field-independent basis, Debye-Ang):
   XX=             -7.1925   YY=             -5.1591   ZZ=             -5.4889
   XY=              0.0000   XZ=              0.0000   YZ=              0.0000

 Normal termination of Gaussian 16 at Wed Feb  8 14:51:00 2023.
