 Gaussian 16, Revision C.01,
 Gaussian 16:  ES64L-G16RevC.01  3-Jul-2019

 ---------------------------------
 #P B3LYP/6-31g* scf(maxcycle=200)
 ---------------------------------

 --------------
 Gaussian input
 --------------
 Symbolic Z-matrix:
 Charge =  0 Multiplicity = 1

                         Standard orientation:
 ---------------------------------------------------------------------
 Center     Atomic      Atomic             Coordinates (Angstroms)
 Number     Number       Type             X           Y           Z
 ---------------------------------------------------------------------
      1          8           0        0.000000    0.136200    0.000000
      2          1           0        0.709801   -0.580922   -0.000000
      3          1           0       -0.709801   -0.508675    0.000000
 ---------------------------------------------------------------------

 SCF Done:  E(RB3LYP) =  -76.4042812122     A.U. after   10 cycles

 The electronic state is 1-A'.
 Alpha  occ. eigenvalues --  -19.14629  -1.00224  -0.49141  -0.39461  -0.29397
 Alpha virt. eigenvalues --    0.05426   0.14019   0.73094   0.86491   0.88816
 Alpha virt. eigenvalues --    0.90301   1.05423   1.23549   1.70593   1.75741
 Alpha virt. eigenvalues --    1.76925   2.28053   2.51560   3.52299

 Mulliken charges:
               1
     1  O   -0.750569
     2  H    0.369302
     3  H    0.381267
 Sum of Mulliken charges =  -0.00000

 Dipole moment (field-independent basis, Debye):
    X=             -0.0546    Y=             -2.2591    Z=             -0.0000  Tot=              2.2597
 Quadrupole moment (field-independent basis, Debye-Ang):
   XX=             -4.7883   YY=             -5.6952   ZZ=             -7.2372
   XY=             -0.0813   XZ=              0.0000   YZ=             -0.0000

 Normal termination of Gaussian 16 at Wed Feb  8 14:52:13 2023.
