 Gaussian 16, Revision C.01,
 Gaussian 16:  ES64L-G16RevC.01  3-Jul-2019

 ------------------------------
 #P HF/6-31g* scf(maxcycle=200)
 ------------------------------

 --------------
 Gaussian input
 --------------
 Symbolic Z-matrix:
 Charge =  0 Multiplicity = 1

                         Standard orientation:
 ---------------------------------------------------------------------
 Center     Atomic      Atomic             Coordinates (Angstroms)
 Number     Number       Type             X           Y           Z
 ---------------------------------------------------------------------
      1          8           0        0.000000   -0.000000    0.109243
      2          1           0       -0.000000    0.848370   -0.436971
      3          1           0       -0.000000   -0.848370   -0.436971
 ---------------------------------------------------------------------

 SCF Done:  E(RHF) =  -76.0004605189     A.U. after   10 cycles

 The electronic state is 1-A1.
 Alpha  occ. eigenvalues --  -20.56355  -1.30897  -0.69445  -0.54163  -0.48996
 Alpha virt. eigenvalues --    0.19780   0.29181   1.04496   1.04710   1.15514
 Alpha virt. eigenvalues --    1.17132   1.38090   1.39383   2.03975   2.05998
 Alpha virt. eigenvalues --    2.08765   2.58644   2.84317   3.95941

 Mulliken charges:
               1
     1  O   -0.880118
     2  H    0.440059
     3  H    0.440059
 Sum of Mulliken charges =  -0.00000

 Dipole moment (field-independent basis, Debye):
    X=             -0.0000    Y=             -0.0000    Z=             -2.0818  Tot=              2.0818
 Quadrupole moment (field-independent basis, Debye-Ang):
   XX=             -7.3335   YY=             -3.5274   ZZ=             -6.2734
   XY=              0.0000   XZ=              0.0000   YZ=              0.0000

 Normal termination of Gaussian 16 at Wed Feb  8 15:07:31 2023.
