 Gaussian 16, Revision C.01,
 Gaussian 16:  ES64L-G16RevC.01  3-Jul-2019

 ------------------------------
 #P HF/6-31g* scf(maxcycle=200)
 ------------------------------

 --------------
 Gaussian input
 --------------
 Symbolic Z-matrix:
 Charge =  0 Multiplicity = 1

                         Standard orientation:
 ---------------------------------------------------------------------
 Center     Atomic      Atomic             Coordinates (Angstroms)
 Number     Number       Type             X           Y           Z
 ---------------------------------------------------------------------
      1          8           0        0.000000    0.122949   -0.000000
      2          1           0        0.733611   -0.569796   -0.000000
      3          1           0       -0.733611   -0.413797    0.000000
 ---------------------------------------------------------------------

 SCF Done:  E(RHF) =  -76.0046841246     A.U. after   10 cycles

 The electronic state is 1-A'.
 Alpha  occ. eigenvalues --  -20.56266  -1.34705  -0.69920  -0.57819  -0.49974
 Alpha virt. eigenvalues --    0.20719   0.30401   0.99604   1.13220   1.16660
 Alpha virt. eigenvalues --    1.19470   1.38410   1.45109   2.00871   2.03613
 Alpha virt. eigenvalues --    2.06412   2.60340   2.95642   3.96337

 Mulliken charges:
               1
     1  O   -0.855226
     2  H    0.422043
     3  H    0.433183
 Sum of Mulliken charges =  -0.00000

 Dipole moment (field-independent basis, Debye):
    X=             -0.0865    Y=             -2.2933    Z=              0.0000  Tot=              2.2949
 Quadrupole moment (field-independent basis, Debye-Ang):
   XX=             -4.3352   YY=             -5.8409   ZZ=             -7.2290
   XY=             -0.2294   XZ=              0.0000   YZ=              0.0000

 Normal termination of Gaussian 16 at Wed Feb  8 15:06:53 2023.
