 Gaussian 16, Revision C.01,
 Gaussian 16:  ES64L-G16RevC.01  3-Jul-2019

 ----------------------------------------
 #P CCSD(T)/aug-cc-pVTZ scf(maxcycle=200)
 ----------------------------------------

 --------------
 Gaussian input
 --------------
 Symbolic Z-matrix:
 Charge =  0 Multiplicity = 1

                         Standard orientation:
 ---------------------------------------------------------------------
 Center     Atomic      Atomic             Coordinates (Angstroms)
 Number     Number       Type             X           Y           Z
 ---------------------------------------------------------------------
      1          8           0        0.000000   -0.000000    0.142030
      2          1           0        0.000000    0.644490   -0.568120
      3          1           0       -0.000000   -0.644490   -0.568120
 ---------------------------------------------------------------------

 SCF Done:  E(RHF) =  -76.0475172556     A.U. after   10 cycles
 E2 =    -0.2710117695D+00 EUMP2 =    -0.76318529025053D+02
 CCSD(T)
 CCSD(T)= -0.76331577810D+02

 The electronic state is 1-A1.
 Alpha  occ. eigenvalues --  -20.57504  -1.36921  -0.67310  -0.62511  -0.51567
 Alpha virt. eigenvalues --    0.02782   0.04895   0.13211   0.16163   0.17770
 Alpha virt. eigenvalues --    0.18809   0.22124   0.24794   0.27260   0.28161
 Alpha virt. eigenvalues --    0.30139   0.37123   0.43108   0.46474   0.58820

 Mulliken charges:
               1
     1  O   -0.455791
     2  H    0.227896
     3  H    0.227896
 Sum of Mulliken charges =  -0.00000

 Dipole moment (field-independent basis, Debye):
    X=             -0.0000    Y=             -0.0000    Z=             -2.2860  Tot=              2.2860
 Quadrupole moment (field-independent basis, Debye-Ang):
   XX=             -7.5387   YY=             -5.1345   ZZ=             -5.6245
   XY=              0.0000   XZ=              0.0000   YZ=              0.0000

 323212\CCSD=-76.3226948\CCSD(T)=-76.3315778\RMSD=3.035e-09\PG=C02V [C2
 Normal termination of Gaussian 16 at Wed Feb  8 13:52:33 2023.
