 Gaussian 16, Revision C.01,
 Gaussian 16:  ES64L-G16RevC.01  3-Jul-2019

 ----------------------------------------
 #P CCSD(T)/aug-cc-pVDZ scf(maxcycle=200)
 ----------------------------------------

 --------------
 Gaussian input
 --------------
 Symbolic Z-matrix:
 Charge =  0 Multiplicity = 1

                         Standard orientation:
 ---------------------------------------------------------------------
 Center     Atomic      Atomic             Coordinates (Angstroms)
 Number     Number       Type             X           Y           Z
 ---------------------------------------------------------------------
      1          8           0        0.000000    0.095676    0.000000
      2          1           0        0.801093   -0.333894    0.000000
      3          1           0       -0.801093   -0.431515    0.000000
 ---------------------------------------------------------------------

 SCF Done:  E(RHF) =  -76.0364996939     A.U. after   10 cycles
 E2 =    -0.2169608487D+00 EUMP2 =    -0.76253460542655D+02
 CCSD(T)
 CCSD(T)= -0.76266349785D+02

 The electronic state is 1-A'.
 Alpha  occ. eigenvalues --  -20.56652  -1.35981  -0.75830  -0.56275  -0.50750
 Alpha virt. eigenvalues --    0.03678   0.05685   0.17496   0.19378   0.22104
 Alpha virt. eigenvalues --    0.22640   0.30431   0.31736   0.38001   0.43632
 Alpha virt. eigenvalues --    0.45957   0.52818   0.65056   0.66154   0.86057

 Mulliken charges:
               1
     1  O   -0.284518
     2  H    0.111541
     3  H    0.172977
 Sum of Mulliken charges =  -0.00000

 Dipole moment (field-independent basis, Debye):
    X=              0.0142    Y=             -1.7396    Z=              0.0000  Tot=              1.7397
 Quadrupole moment (field-independent basis, Debye-Ang):
   XX=             -3.7705   YY=             -6.6409   ZZ=             -7.5618
   XY=              0.1966   XZ=              0.0000   YZ=              0.0000

 26155\CCSD=-76.2613471\CCSD(T)=-76.2663498\RMSD=4.582e-09\PG=CS [SG(H2
 Normal termination of Gaussian 16 at Wed Feb  8 14:47:43 2023.
