 Gaussian 16, Revision C.01,
 Gaussian 16:  ES64L-G16RevC.01  3-Jul-2019

 ----------------------------------------
 #P CCSD(T)/aug-cc-pVTZ scf(maxcycle=200)
 ----------------------------------------

 --------------
 Gaussian input
 --------------
 Symbolic Z-matrix:
 Charge =  0 Multiplicity = 1

                         Standard orientation:
 ---------------------------------------------------------------------
 Center     Atomic      Atomic             Coordinates (Angstroms)
 Number     Number       Type             X           Y           Z
 ---------------------------------------------------------------------
      1          8           0        0.000000    0.115105    0.000000
      2          1           0        0.764207   -0.377104    0.000000
      3          1           0       -0.764207   -0.543734    0.000000
 ---------------------------------------------------------------------

 SCF Done:  E(RHF) =  -76.0554903134     A.U. after   10 cycles
 E2 =    -0.2683222880D+00 EUMP2 =    -0.76323812601398D+02
 CCSD(T)
 CCSD(T)= -0.76337209765D+02

 The electronic state is 1-A'.
 Alpha  occ. eigenvalues --  -20.56610  -1.35375  -0.72133  -0.58004  -0.50984
 Alpha virt. eigenvalues --    0.02942   0.04759   0.13599   0.15810   0.17357
 Alpha virt. eigenvalues --    0.18295   0.22764   0.24493   0.26462   0.30283
 Alpha virt. eigenvalues --    0.31161   0.36555   0.43274   0.47055   0.60078

 Mulliken charges:
               1
     1  O   -0.430434
     2  H    0.170606
     3  H    0.259828
 Sum of Mulliken charges =  -0.00000

 Dipole moment (field-independent basis, Debye):
    X=              0.0416    Y=             -1.9544    Z=              0.0000  Tot=              1.9549
 Quadrupole moment (field-independent basis, Debye-Ang):
   XX=             -4.1777   YY=             -6.2701   ZZ=             -7.5631
   XY=              0.2875   XZ=              0.0000   YZ=              0.0000

 .3290483\CCSD=-76.3285755\CCSD(T)=-76.3372098\RMSD=4.107e-09\PG=CS [SG
 Normal termination of Gaussian 16 at Wed Feb  8 13:50:32 2023.
