 Gaussian 16, Revision C.01,
 Gaussian 16:  ES64L-G16RevC.01  3-Jul-2019

 -----------------------------------
 #P HF/aug-cc-pVDZ scf(maxcycle=200)
 -----------------------------------

 --------------
 Gaussian input
 --------------
 Symbolic Z-matrix:
 Charge =  0 Multiplicity = 1

                         Standard orientation:
 ---------------------------------------------------------------------
 Center     Atomic      Atomic             Coordinates (Angstroms)
 Number     Number       Type             X           Y           Z
 ---------------------------------------------------------------------
      1          8           0        0.000000    0.106951    0.000000
      2          1           0        0.792575   -0.338139    0.000000
      3          1           0       -0.792575   -0.517473    0.000000
 ---------------------------------------------------------------------

 SCF Done:  E(RHF) =  -76.0349273303     A.U. after   10 cycles

 The electronic state is 1-A'.
 Alpha  occ. eigenvalues --  -20.57320  -1.35266  -0.73355  -0.56919  -0.50711
 Alpha virt. eigenvalues --    0.03585   0.05724   0.17471   0.19571   0.21924
 Alpha virt. eigenvalues --    0.22912   0.29243   0.32303   0.38062   0.42029
 Alpha virt. eigenvalues --    0.44677   0.53106   0.63921   0.66340   0.83097

 Mulliken charges:
               1
     1  O   -0.319700
     2  H    0.101202
     3  H    0.218498
 Sum of Mulliken charges =  -0.00000

 Dipole moment (field-independent basis, Debye):
    X=              0.0359    Y=             -1.8688    Z=              0.0000  Tot=              1.8691
 Quadrupole moment (field-independent basis, Debye-Ang):
   XX=             -3.9575   YY=             -6.4642   ZZ=             -7.6074
   XY=              0.3399   XZ=              0.0000   YZ=              0.0000

 Normal termination of Gaussian 16 at Mon Feb 20 10:15:31 2023.
