 Gaussian 16, Revision C.01,
 Gaussian 16:  ES64L-G16RevC.01  3-Jul-2019

 -----------------------------------
 #P HF/aug-cc-pVDZ scf(maxcycle=200)
 -----------------------------------

 --------------
 Gaussian input
 --------------
 Symbolic Z-matrix:
 Charge =  0 Multiplicity = 1

                         Standard orientation:
 ---------------------------------------------------------------------
 Center     Atomic      Atomic             Coordinates (Angstroms)
 Number     Number       Type             X           Y           Z
 ---------------------------------------------------------------------
      1          8           0        0.000000    0.000000    0.103255
      2          1           0        0.000000    0.866916   -0.413018
      3          1           0       -0.000000   -0.866916   -0.413018
 ---------------------------------------------------------------------

 SCF Done:  E(RHF) =  -76.0286432544     A.U. after   10 cycles

 The electronic state is 1-A1.
 Alpha  occ. eigenvalues --  -20.57795  -1.32279  -0.71396  -0.54952  -0.50063
 Alpha virt. eigenvalues --    0.03527   0.05636   0.17668   0.19798   0.21269
 Alpha virt. eigenvalues --    0.22785   0.28741   0.30616   0.37404   0.42537
 Alpha virt. eigenvalues --    0.44815   0.51606   0.63456   0.65007   0.82976

 Mulliken charges:
               1
     1  O   -0.450127
     2  H    0.225063
     3  H    0.225063
 Sum of Mulliken charges =  -0.00000

 Dipole moment (field-independent basis, Debye):
    X=             -0.0000    Y=              0.0000    Z=             -1.7845  Tot=              1.7845
 Quadrupole moment (field-independent basis, Debye-Ang):
   XX=             -7.7439   YY=             -3.4855   ZZ=             -6.7406
   XY=              0.0000   XZ=              0.0000   YZ=             -0.0000

 Normal termination of Gaussian 16 at Mon Feb 20 10:29:39 2023.
