 Gaussian 16, Revision C.01,
 Gaussian 16:  ES64L-G16RevC.01  3-Jul-2019

 ------------------------------
 #P HF/6-31g* scf(maxcycle=200)
 ------------------------------

 --------------
 Gaussian input
 --------------
 Symbolic Z-matrix:
 Charge =  0 Multiplicity = 1

                         Standard orientation:
 ---------------------------------------------------------------------
 Center     Atomic      Atomic             Coordinates (Angstroms)
 Number     Number       Type             X           Y           Z
 ---------------------------------------------------------------------
      1          8           0       -0.000000    0.000000    0.131794
      2          1           0       -0.000000    0.764096   -0.527174
      3          1           0       -0.000000   -0.764096   -0.527174
 ---------------------------------------------------------------------

 SCF Done:  E(RHF) =  -76.0028979923     A.U. after   10 cycles

 The electronic state is 1-A1.
 Alpha  occ. eigenvalues --  -20.57398  -1.32169  -0.66903  -0.57383  -0.49740
 Alpha virt. eigenvalues --    0.19836   0.28789   0.97746   1.11351   1.14519
 Alpha virt. eigenvalues --    1.16591   1.36063   1.45853   2.01737   2.04987
 Alpha virt. eigenvalues --    2.06957   2.56203   2.84300   3.93298

 Mulliken charges:
               1
     1  O   -0.845648
     2  H    0.422824
     3  H    0.422824
 Sum of Mulliken charges =  -0.00000

 Dipole moment (field-independent basis, Debye):
    X=             -0.0000    Y=             -0.0000    Z=             -2.3686  Tot=              2.3686
 Quadrupole moment (field-independent basis, Debye-Ang):
   XX=             -7.3333   YY=             -4.3369   ZZ=             -5.8152
   XY=              0.0000   XZ=              0.0000   YZ=              0.0000

 Normal termination of Gaussian 16 at Wed Feb  8 15:07:31 2023.
