 Gaussian 16, Revision C.01,
 Gaussian 16:  ES64L-G16RevC.01  3-Jul-2019

 ------------------------------------
 #P wB97XD/6-311g** scf(maxcycle=200)
 ------------------------------------

 --------------
 Gaussian input
 --------------
 Symbolic Z-matrix:
 Charge =  0 Multiplicity = 1

                         Standard orientation:
 ---------------------------------------------------------------------
 Center     Atomic      Atomic             Coordinates (Angstroms)
 Number     Number       Type             X           Y           Z
 ---------------------------------------------------------------------
      1          8           0        0.000000   -0.000000    0.098416
      2          1           0        0.000000    0.764290   -0.393663
      3          1           0       -0.000000   -0.764290   -0.393663
 ---------------------------------------------------------------------

 SCF Done:  E(RwB97XD) =  -76.4167550334     A.U. after   12 cycles

 The electronic state is 1-A1.
 Alpha  occ. eigenvalues --  -19.21234  -1.11731  -0.64810  -0.44783  -0.38797
 Alpha virt. eigenvalues --    0.13148   0.20152   0.50830   0.51159   0.84732
 Alpha virt. eigenvalues --    0.85525   0.95454   1.14548   1.33251   1.46545
 Alpha virt. eigenvalues --    1.61418   1.72391   2.13323   2.14472   2.45557

 Mulliken charges:
               1
     1  O   -0.516569
     2  H    0.258284
     3  H    0.258284
 Sum of Mulliken charges =   0.00000

 Dipole moment (field-independent basis, Debye):
    X=             -0.0000    Y=              0.0000    Z=             -1.9166  Tot=              1.9166
 Quadrupole moment (field-independent basis, Debye-Ang):
   XX=             -7.0676   YY=             -3.9165   ZZ=             -6.2440
   XY=              0.0000   XZ=              0.0000   YZ=             -0.0000

 Normal termination of Gaussian 16 at Wed Feb  8 14:40:05 2023.
