 Gaussian 16, Revision C.01,
 Gaussian 16:  ES64L-G16RevC.01  3-Jul-2019

 -----------------------------------
 #P HF/aug-cc-pVDZ scf(maxcycle=200)
 -----------------------------------

 --------------
 Gaussian input
 --------------
 Symbolic Z-matrix:
 Charge =  0 Multiplicity = 1

                         Standard orientation:
 ---------------------------------------------------------------------
 Center     Atomic      Atomic             Coordinates (Angstroms)
 Number     Number       Type             X           Y           Z
 ---------------------------------------------------------------------
      1          8           0        0.000000    0.101210    0.000000
      2          1           0        0.784070   -0.358698    0.000000
      3          1           0       -0.784070   -0.450981    0.000000
 ---------------------------------------------------------------------

 SCF Done:  E(RHF) =  -76.0384374997     A.U. after   10 cycles

 The electronic state is 1-A'.
 Alpha  occ. eigenvalues --  -20.56853  -1.36250  -0.75145  -0.57039  -0.50869
 Alpha virt. eigenvalues --    0.03654   0.05718   0.17447   0.19424   0.22214
 Alpha virt. eigenvalues --    0.22766   0.30226   0.32174   0.38203   0.42781
 Alpha virt. eigenvalues --    0.45306   0.53256   0.65120   0.66129   0.85075

 Mulliken charges:
               1
     1  O   -0.270471
     2  H    0.105114
     3  H    0.165357
 Sum of Mulliken charges =  -0.00000

 Dipole moment (field-independent basis, Debye):
    X=              0.0172    Y=             -1.8127    Z=              0.0000  Tot=              1.8128
 Quadrupole moment (field-independent basis, Debye-Ang):
   XX=             -3.9302   YY=             -6.5284   ZZ=             -7.5525
   XY=              0.1770   XZ=              0.0000   YZ=              0.0000

 Normal termination of Gaussian 16 at Mon Feb 20 10:15:08 2023.
