 Gaussian 16, Revision C.01,
 Gaussian 16:  ES64L-G16RevC.01  3-Jul-2019

 ------------------------------------
 #P wB97XD/6-311g** scf(maxcycle=200)
 ------------------------------------

 --------------
 Gaussian input
 --------------
 Symbolic Z-matrix:
 Charge =  0 Multiplicity = 1

                         Standard orientation:
 ---------------------------------------------------------------------
 Center     Atomic      Atomic             Coordinates (Angstroms)
 Number     Number       Type             X           Y           Z
 ---------------------------------------------------------------------
      1          8           0        0.000000    0.098513   -0.000000
      2          1           0        0.818586   -0.491400    0.000000
      3          1           0       -0.818586   -0.296706   -0.000000
 ---------------------------------------------------------------------

 SCF Done:  E(RwB97XD) =  -76.4136917169     A.U. after   12 cycles

 The electronic state is 1-A'.
 Alpha  occ. eigenvalues --  -19.21750  -1.09395  -0.63171  -0.43561  -0.38214
 Alpha virt. eigenvalues --    0.11866   0.19336   0.45052   0.51311   0.85056
 Alpha virt. eigenvalues --    0.85700   0.94541   1.15140   1.31669   1.52036
 Alpha virt. eigenvalues --    1.61441   1.65375   2.05245   2.12886   2.47462

 Mulliken charges:
               1
     1  O   -0.538696
     2  H    0.270205
     3  H    0.268491
 Sum of Mulliken charges =   0.00000

 Dipole moment (field-independent basis, Debye):
    X=             -0.0711    Y=             -1.8761    Z=              0.0000  Tot=              1.8774
 Quadrupole moment (field-independent basis, Debye-Ang):
   XX=             -3.6507   YY=             -6.3388   ZZ=             -7.1837
   XY=             -0.3644   XZ=              0.0000   YZ=             -0.0000

 Normal termination of Gaussian 16 at Wed Feb  8 14:42:24 2023.
