 Gaussian 16, Revision C.01,
 Gaussian 16:  ES64L-G16RevC.01  3-Jul-2019

 ------------------------------
 #P HF/6-31g* scf(maxcycle=200)
 ------------------------------

 --------------
 Gaussian input
 --------------
 Symbolic Z-matrix:
 Charge =  0 Multiplicity = 1

                         Standard orientation:
 ---------------------------------------------------------------------
 Center     Atomic      Atomic             Coordinates (Angstroms)
 Number     Number       Type             X           Y           Z
 ---------------------------------------------------------------------
      1          8           0       -0.000000   -0.000000    0.095733
      2          1           0       -0.000000    0.772761   -0.382933
      3          1           0       -0.000000   -0.772761   -0.382933
 ---------------------------------------------------------------------

 SCF Done:  E(RHF) =  -76.0047540311     A.U. after   10 cycles

 The electronic state is 1-A1.
 Alpha  occ. eigenvalues --  -20.54414  -1.35763  -0.75686  -0.55520  -0.49696
 Alpha virt. eigenvalues --    0.22240   0.31572   1.11382   1.11993   1.17063
 Alpha virt. eigenvalues --    1.17427   1.40958   1.41200   2.01128   2.04460
 Alpha virt. eigenvalues --    2.07355   2.72241   3.00744   4.01939

 Mulliken charges:
               1
     1  O   -0.888280
     2  H    0.444140
     3  H    0.444140
 Sum of Mulliken charges =   0.00000

 Dipole moment (field-independent basis, Debye):
    X=             -0.0000    Y=             -0.0000    Z=             -1.9589  Tot=              1.9589
 Quadrupole moment (field-independent basis, Debye-Ang):
   XX=             -7.1243   YY=             -3.7285   ZZ=             -6.2512
   XY=              0.0000   XZ=              0.0000   YZ=              0.0000

 Normal termination of Gaussian 16 at Wed Feb  8 15:05:01 2023.
