 Gaussian 16, Revision C.01,
 Gaussian 16:  ES64L-G16RevC.01  3-Jul-2019

 -----------------------------------
 #P HF/aug-cc-pVDZ scf(maxcycle=200)
 -----------------------------------

 --------------
 Gaussian input
 --------------
 Symbolic Z-matrix:
 Charge =  0 Multiplicity = 1

                         Standard orientation:
 ---------------------------------------------------------------------
 Center     Atomic      Atomic             Coordinates (Angstroms)
 Number     Number       Type             X           Y           Z
 ---------------------------------------------------------------------
      1          8           0        0.000000    0.000000    0.095247
      2          1           0        0.000000    0.832395   -0.380988
      3          1           0       -0.000000   -0.832395   -0.380988
 ---------------------------------------------------------------------

 SCF Done:  E(RHF) =  -76.0359545213     A.U. after   10 cycles

 The electronic state is 1-A1.
 Alpha  occ. eigenvalues --  -20.56950  -1.34502  -0.74604  -0.55468  -0.50436
 Alpha virt. eigenvalues --    0.03647   0.05652   0.17597   0.19504   0.21826
 Alpha virt. eigenvalues --    0.22618   0.30199   0.30901   0.37712   0.43693
 Alpha virt. eigenvalues --    0.45885   0.52176   0.65129   0.65342   0.85832

 Mulliken charges:
               1
     1  O   -0.350535
     2  H    0.175267
     3  H    0.175267
 Sum of Mulliken charges =  -0.00000

 Dipole moment (field-independent basis, Debye):
    X=             -0.0000    Y=              0.0000    Z=             -1.7157  Tot=              1.7157
 Quadrupole moment (field-independent basis, Debye-Ang):
   XX=             -7.6297   YY=             -3.5876   ZZ=             -6.7433
   XY=              0.0000   XZ=              0.0000   YZ=             -0.0000

 Normal termination of Gaussian 16 at Mon Feb 20 10:16:07 2023.
