 Gaussian 16, Revision C.01,
 Gaussian 16:  ES64L-G16RevC.01  3-Jul-2019

 ----------------------------------------
 #P PBE1PBE/aug-cc-pVDZ scf(maxcycle=200)
 ----------------------------------------

 --------------
 Gaussian input
 --------------
 Symbolic Z-matrix:
 Charge =  0 Multiplicity = 1

                         Standard orientation:
 ---------------------------------------------------------------------
 Center     Atomic      Atomic             Coordinates (Angstroms)
 Number     Number       Type             X           Y           Z
 ---------------------------------------------------------------------
      1          8           0        0.000000    0.000000    0.139611
      2          1           0        0.000000    0.728561   -0.558444
      3          1           0       -0.000000   -0.728561   -0.558444
 ---------------------------------------------------------------------

 SCF Done:  E(RPBE1PBE) =  -76.3534804106     A.U. after    8 cycles

 The electronic state is 1-A1.
 Alpha  occ. eigenvalues --  -19.24260  -1.03551  -0.51075  -0.42980  -0.33177
 Alpha virt. eigenvalues --   -0.01796   0.03131   0.10735   0.13365   0.14283
 Alpha virt. eigenvalues --    0.15013   0.18419   0.24967   0.27690   0.29458
 Alpha virt. eigenvalues --    0.31026   0.45673   0.49735   0.52368   0.61522

 Mulliken charges:
               1
     1  O   -0.312874
     2  H    0.156437
     3  H    0.156437
 Sum of Mulliken charges =  -0.00000

 Dipole moment (field-independent basis, Debye):
    X=             -0.0000    Y=              0.0000    Z=             -2.0599  Tot=              2.0599
 Quadrupole moment (field-independent basis, Debye-Ang):
   XX=             -7.8435   YY=             -4.9160   ZZ=             -6.0787
   XY=              0.0000   XZ=              0.0000   YZ=             -0.0000

 Normal termination of Gaussian 16 at Mon Mar 20 17:35:42 2023.
