 Gaussian 16, Revision C.01,
 Gaussian 16:  ES64L-G16RevC.01  3-Jul-2019

 ----------------------------------------
 #P CCSD(T)/aug-cc-pVTZ scf(maxcycle=200)
 ----------------------------------------

 --------------
 Gaussian input
 --------------
 Symbolic Z-matrix:
 Charge =  0 Multiplicity = 1

                         Standard orientation:
 ---------------------------------------------------------------------
 Center     Atomic      Atomic             Coordinates (Angstroms)
 Number     Number       Type             X           Y           Z
 ---------------------------------------------------------------------
      1          8           0        0.000000    0.098458    0.000000
      2          1           0        0.792706   -0.441263    0.000000
      3          1           0       -0.792706   -0.346400   -0.000000
 ---------------------------------------------------------------------

 SCF Done:  E(RHF) =  -76.0571977416     A.U. after   10 cycles
 E2 =    -0.2660284928D+00 EUMP2 =    -0.76323226234410D+02
 CCSD(T)
 CCSD(T)= -0.76336517131D+02

 The electronic state is 1-A'.
 Alpha  occ. eigenvalues --  -20.55748  -1.35810  -0.75324  -0.56609  -0.50894
 Alpha virt. eigenvalues --    0.03036   0.04709   0.13736   0.15505   0.17259
 Alpha virt. eigenvalues --    0.18033   0.23300   0.24412   0.26144   0.31488
 Alpha virt. eigenvalues --    0.32088   0.36454   0.44057   0.47068   0.61003

 Mulliken charges:
               1
     1  O   -0.396245
     2  H    0.224705
     3  H    0.171540
 Sum of Mulliken charges =  -0.00000

 Dipole moment (field-independent basis, Debye):
    X=             -0.0142    Y=             -1.7581    Z=              0.0000  Tot=              1.7581
 Quadrupole moment (field-independent basis, Debye-Ang):
   XX=             -3.8149   YY=             -6.5617   ZZ=             -7.5248
   XY=             -0.1841   XZ=              0.0000   YZ=              0.0000

 .3286076\CCSD=-76.3281576\CCSD(T)=-76.3365171\RMSD=2.557e-09\PG=CS [SG
 Normal termination of Gaussian 16 at Wed Feb  8 13:53:30 2023.
