 Gaussian 16, Revision C.01,
 Gaussian 16:  ES64L-G16RevC.01  3-Jul-2019

 ----------------------------------------
 #P CCSD(T)/aug-cc-pVDZ scf(maxcycle=200)
 ----------------------------------------

 --------------
 Gaussian input
 --------------
 Symbolic Z-matrix:
 Charge =  0 Multiplicity = 1

                         Standard orientation:
 ---------------------------------------------------------------------
 Center     Atomic      Atomic             Coordinates (Angstroms)
 Number     Number       Type             X           Y           Z
 ---------------------------------------------------------------------
      1          8           0        0.000000    0.109279    0.000000
      2          1           0        0.756707   -0.394383    0.000000
      3          1           0       -0.756707   -0.479852    0.000000
 ---------------------------------------------------------------------

 SCF Done:  E(RHF) =  -76.0399955547     A.U. after   10 cycles
 E2 =    -0.2171158865D+00 EUMP2 =    -0.76257111441168D+02
 CCSD(T)
 CCSD(T)= -0.76270056231D+02

 The electronic state is 1-A'.
 Alpha  occ. eigenvalues --  -20.57137  -1.36675  -0.74030  -0.58208  -0.51041
 Alpha virt. eigenvalues --    0.03610   0.05770   0.17376   0.19497   0.22335
 Alpha virt. eigenvalues --    0.22952   0.29884   0.32969   0.38518   0.41551
 Alpha virt. eigenvalues --    0.44364   0.53880   0.65137   0.66113   0.83440

 Mulliken charges:
               1
     1  O   -0.253074
     2  H    0.097480
     3  H    0.155594
 Sum of Mulliken charges =   0.00000

 Dipole moment (field-independent basis, Debye):
    X=              0.0212    Y=             -1.9161    Z=              0.0000  Tot=              1.9162
 Quadrupole moment (field-independent basis, Debye-Ang):
   XX=             -4.1747   YY=             -6.3563   ZZ=             -7.5398
   XY=              0.1516   XZ=              0.0000   YZ=              0.0000

 .2652258\CCSD=-76.265033\CCSD(T)=-76.2700562\RMSD=5.759e-09\PG=CS [SG(
 Normal termination of Gaussian 16 at Wed Feb  8 14:47:31 2023.
