 Gaussian 16, Revision C.01,
 Gaussian 16:  ES64L-G16RevC.01  3-Jul-2019

 ------------------------------------
 #P wB97XD/6-311g** scf(maxcycle=200)
 ------------------------------------

 --------------
 Gaussian input
 --------------
 Symbolic Z-matrix:
 Charge =  0 Multiplicity = 1

                         Standard orientation:
 ---------------------------------------------------------------------
 Center     Atomic      Atomic             Coordinates (Angstroms)
 Number     Number       Type             X           Y           Z
 ---------------------------------------------------------------------
      1          8           0        0.000000    0.097826    0.000000
      2          1           0        0.852703   -0.441598    0.000000
      3          1           0       -0.852703   -0.341012   -0.000000
 ---------------------------------------------------------------------

 SCF Done:  E(RwB97XD) =  -76.4144007810     A.U. after   12 cycles

 The electronic state is 1-A'.
 Alpha  occ. eigenvalues --  -19.22028  -1.08069  -0.62385  -0.42965  -0.37913
 Alpha virt. eigenvalues --    0.11416   0.18822   0.44293   0.49218   0.85185
 Alpha virt. eigenvalues --    0.85828   0.94037   1.15373   1.30908   1.54003
 Alpha virt. eigenvalues --    1.61175   1.62446   2.04583   2.08942   2.48544

 Mulliken charges:
               1
     1  O   -0.547449
     2  H    0.274672
     3  H    0.272777
 Sum of Mulliken charges =  -0.00000

 Dipole moment (field-independent basis, Debye):
    X=             -0.0343    Y=             -1.8475    Z=             -0.0000  Tot=              1.8478
 Quadrupole moment (field-independent basis, Debye-Ang):
   XX=             -3.4598   YY=             -6.4453   ZZ=             -7.2433
   XY=             -0.1964   XZ=              0.0000   YZ=             -0.0000

 Normal termination of Gaussian 16 at Wed Feb  8 14:42:50 2023.
