 Gaussian 16, Revision C.01,
 Gaussian 16:  ES64L-G16RevC.01  3-Jul-2019

 ------------------------------
 #P HF/6-31g* scf(maxcycle=200)
 ------------------------------

 --------------
 Gaussian input
 --------------
 Symbolic Z-matrix:
 Charge =  0 Multiplicity = 1

                         Standard orientation:
 ---------------------------------------------------------------------
 Center     Atomic      Atomic             Coordinates (Angstroms)
 Number     Number       Type             X           Y           Z
 ---------------------------------------------------------------------
      1          8           0       -0.000000    0.138657   -0.000000
      2          1           0        0.697840   -0.590109   -0.000000
      3          1           0       -0.697840   -0.519143    0.000000
 ---------------------------------------------------------------------

 SCF Done:  E(RHF) =  -76.0010758222     A.U. after   10 cycles

 The electronic state is 1-A'.
 Alpha  occ. eigenvalues --  -20.57297  -1.34141  -0.66577  -0.59478  -0.50184
 Alpha virt. eigenvalues --    0.20047   0.29454   0.96172   1.12582   1.16389
 Alpha virt. eigenvalues --    1.18007   1.36212   1.49042   1.99688   2.04949
 Alpha virt. eigenvalues --    2.05708   2.61748   2.85194   3.92845

 Mulliken charges:
               1
     1  O   -0.837502
     2  H    0.413638
     3  H    0.423863
 Sum of Mulliken charges =  -0.00000

 Dipole moment (field-independent basis, Debye):
    X=             -0.0510    Y=             -2.4771    Z=              0.0000  Tot=              2.4777
 Quadrupole moment (field-independent basis, Debye-Ang):
   XX=             -4.7691   YY=             -5.5782   ZZ=             -7.2849
   XY=             -0.0850   XZ=              0.0000   YZ=              0.0000

 Normal termination of Gaussian 16 at Wed Feb  8 15:07:05 2023.
