 Gaussian 16, Revision C.01,
 Gaussian 16:  ES64L-G16RevC.01  3-Jul-2019

 ----------------------------------------
 #P CCSD(T)/aug-cc-pVTZ scf(maxcycle=200)
 ----------------------------------------

 --------------
 Gaussian input
 --------------
 Symbolic Z-matrix:
 Charge =  0 Multiplicity = 1

                         Standard orientation:
 ---------------------------------------------------------------------
 Center     Atomic      Atomic             Coordinates (Angstroms)
 Number     Number       Type             X           Y           Z
 ---------------------------------------------------------------------
      1          8           0        0.000000    0.114495    0.000000
      2          1           0        0.737286   -0.498767   -0.000000
      3          1           0       -0.737286   -0.417192    0.000000
 ---------------------------------------------------------------------

 SCF Done:  E(RHF) =  -76.0595000571     A.U. after   10 cycles
 E2 =    -0.2665089330D+00 EUMP2 =    -0.76326008990054D+02
 CCSD(T)
 CCSD(T)= -0.76339337515D+02

 The electronic state is 1-A'.
 Alpha  occ. eigenvalues --  -20.56287  -1.36670  -0.73087  -0.58932  -0.51244
 Alpha virt. eigenvalues --    0.02969   0.04778   0.13593   0.15729   0.17565
 Alpha virt. eigenvalues --    0.18298   0.22958   0.24627   0.26553   0.30185
 Alpha virt. eigenvalues --    0.31129   0.36683   0.44175   0.47192   0.60135

 Mulliken charges:
               1
     1  O   -0.396205
     2  H    0.224267
     3  H    0.171938
 Sum of Mulliken charges =  -0.00000

 Dipole moment (field-independent basis, Debye):
    X=             -0.0224    Y=             -1.9647    Z=              0.0000  Tot=              1.9648
 Quadrupole moment (field-independent basis, Debye-Ang):
   XX=             -4.3050   YY=             -6.2190   ZZ=             -7.5029
   XY=             -0.1347   XZ=             -0.0000   YZ=              0.0000

 3313945\CCSD=-76.3309425\CCSD(T)=-76.3393375\RMSD=2.831e-09\PG=CS [SG(
 Normal termination of Gaussian 16 at Wed Feb  8 13:51:36 2023.
