 Gaussian 16, Revision C.01,
 Gaussian 16:  ES64L-G16RevC.01  3-Jul-2019

 -----------------------------------
 #P HF/aug-cc-pVDZ scf(maxcycle=200)
 -----------------------------------

 --------------
 Gaussian input
 --------------
 Symbolic Z-matrix:
 Charge =  0 Multiplicity = 1

                         Standard orientation:
 ---------------------------------------------------------------------
 Center     Atomic      Atomic             Coordinates (Angstroms)
 Number     Number       Type             X           Y           Z
 ---------------------------------------------------------------------
      1          8           0        0.000000    0.090027   -0.000000
      2          1           0        0.817110   -0.411981    0.000000
      3          1           0       -0.817110   -0.308234   -0.000000
 ---------------------------------------------------------------------

 SCF Done:  E(RHF) =  -76.0339292091     A.U. after   10 cycles

 The electronic state is 1-A'.
 Alpha  occ. eigenvalues --  -20.56444  -1.35720  -0.76466  -0.55529  -0.50627
 Alpha virt. eigenvalues --    0.03700   0.05652   0.17549   0.19334   0.21971
 Alpha virt. eigenvalues --    0.22514   0.30492   0.31496   0.37806   0.44502
 Alpha virt. eigenvalues --    0.46621   0.52362   0.64957   0.66183   0.86248

 Mulliken charges:
               1
     1  O   -0.300173
     2  H    0.181315
     3  H    0.118858
 Sum of Mulliken charges =   0.00000

 Dipole moment (field-independent basis, Debye):
    X=             -0.0111    Y=             -1.6627    Z=              0.0000  Tot=              1.6628
 Quadrupole moment (field-independent basis, Debye-Ang):
   XX=             -3.6142   YY=             -6.7508   ZZ=             -7.5716
   XY=             -0.2186   XZ=              0.0000   YZ=             -0.0000

 Normal termination of Gaussian 16 at Mon Feb 20 10:15:48 2023.
