 Gaussian 16, Revision C.01,
 Gaussian 16:  ES64L-G16RevC.01  3-Jul-2019

 ----------------------------------------
 #P CCSD(T)/aug-cc-pVTZ scf(maxcycle=200)
 ----------------------------------------

 --------------
 Gaussian input
 --------------
 Symbolic Z-matrix:
 Charge =  0 Multiplicity = 1

                         Standard orientation:
 ---------------------------------------------------------------------
 Center     Atomic      Atomic             Coordinates (Angstroms)
 Number     Number       Type             X           Y           Z
 ---------------------------------------------------------------------
      1          8           0        0.000000    0.120617    0.000000
      2          1           0        0.776856   -0.441678    0.000000
      3          1           0       -0.776856   -0.523258    0.000000
 ---------------------------------------------------------------------

 SCF Done:  E(RHF) =  -76.0564863570     A.U. after   10 cycles
 E2 =    -0.2705019085D+00 EUMP2 =    -0.76326988265529D+02
 CCSD(T)
 CCSD(T)= -0.76340364857D+02

 The electronic state is 1-A'.
 Alpha  occ. eigenvalues --  -20.57174  -1.34082  -0.70354  -0.57970  -0.50830
 Alpha virt. eigenvalues --    0.02906   0.04759   0.13574   0.15980   0.17395
 Alpha virt. eigenvalues --    0.18312   0.22498   0.24391   0.26513   0.29933
 Alpha virt. eigenvalues --    0.30949   0.36493   0.43113   0.46275   0.59811

 Mulliken charges:
               1
     1  O   -0.475149
     2  H    0.219119
     3  H    0.256030
 Sum of Mulliken charges =  -0.00000

 Dipole moment (field-independent basis, Debye):
    X=              0.0220    Y=             -2.0058    Z=              0.0000  Tot=              2.0059
 Quadrupole moment (field-independent basis, Debye-Ang):
   XX=             -4.1906   YY=             -6.2495   ZZ=             -7.6186
   XY=              0.1393   XZ=              0.0000   YZ=              0.0000

 .3319714\CCSD=-76.3314653\CCSD(T)=-76.3403649\RMSD=4.760e-09\PG=CS [SG
 Normal termination of Gaussian 16 at Wed Feb  8 13:54:56 2023.
