 Gaussian 16, Revision C.01,
 Gaussian 16:  ES64L-G16RevC.01  3-Jul-2019

 ----------------------------------------
 #P CCSD(T)/aug-cc-pVTZ scf(maxcycle=200)
 ----------------------------------------

 --------------
 Gaussian input
 --------------
 Symbolic Z-matrix:
 Charge =  0 Multiplicity = 1

                         Standard orientation:
 ---------------------------------------------------------------------
 Center     Atomic      Atomic             Coordinates (Angstroms)
 Number     Number       Type             X           Y           Z
 ---------------------------------------------------------------------
      1          8           0        0.000000    0.141071    0.000000
      2          1           0        0.685666   -0.529409    0.000000
      3          1           0       -0.685666   -0.599161    0.000000
 ---------------------------------------------------------------------

 SCF Done:  E(RHF) =  -76.0490210673     A.U. after   10 cycles
 E2 =    -0.2724565664D+00 EUMP2 =    -0.76321477633680D+02
 CCSD(T)
 CCSD(T)= -0.76334640960D+02

 The electronic state is 1-A'.
 Alpha  occ. eigenvalues --  -20.57820  -1.35276  -0.67138  -0.61097  -0.51288
 Alpha virt. eigenvalues --    0.02783   0.04863   0.13271   0.16208   0.17652
 Alpha virt. eigenvalues --    0.18722   0.21959   0.24612   0.27120   0.28392
 Alpha virt. eigenvalues --    0.30221   0.36829   0.42738   0.46010   0.58935

 Mulliken charges:
               1
     1  O   -0.479775
     2  H    0.222548
     3  H    0.257227
 Sum of Mulliken charges =   0.00000

 Dipole moment (field-independent basis, Debye):
    X=              0.0308    Y=             -2.2540    Z=              0.0000  Tot=              2.2542
 Quadrupole moment (field-independent basis, Debye-Ang):
   XX=             -4.9339   YY=             -5.7394   ZZ=             -7.5972
   XY=              0.0907   XZ=              0.0000   YZ=              0.0000

 3260912\CCSD=-76.3255555\CCSD(T)=-76.334641\RMSD=4.264e-09\PG=CS [SG(H
 Normal termination of Gaussian 16 at Wed Feb  8 13:54:18 2023.
