 Gaussian 16, Revision C.01,
 Gaussian 16:  ES64L-G16RevC.01  3-Jul-2019

 ------------------------------------
 #P wB97XD/6-311g** scf(maxcycle=200)
 ------------------------------------

 --------------
 Gaussian input
 --------------
 Symbolic Z-matrix:
 Charge =  0 Multiplicity = 1

                         Standard orientation:
 ---------------------------------------------------------------------
 Center     Atomic      Atomic             Coordinates (Angstroms)
 Number     Number       Type             X           Y           Z
 ---------------------------------------------------------------------
      1          8           0        0.000000    0.119572    0.000000
      2          1           0        0.716953   -0.517343   -0.000000
      3          1           0       -0.716953   -0.439230    0.000000
 ---------------------------------------------------------------------

 SCF Done:  E(RwB97XD) =  -76.4202264317     A.U. after   12 cycles

 The electronic state is 1-A'.
 Alpha  occ. eigenvalues --  -19.22354  -1.11810  -0.61238  -0.47298  -0.38961
 Alpha virt. eigenvalues --    0.12246   0.19767   0.46819   0.53805   0.85082
 Alpha virt. eigenvalues --    0.85397   0.95788   1.15565   1.26855   1.36998
 Alpha virt. eigenvalues --    1.53041   1.79486   2.02717   2.18852   2.39019

 Mulliken charges:
               1
     1  O   -0.469933
     2  H    0.234006
     3  H    0.235927
 Sum of Mulliken charges =  -0.00000

 Dipole moment (field-independent basis, Debye):
    X=             -0.0441    Y=             -2.1332    Z=             -0.0000  Tot=              2.1337
 Quadrupole moment (field-independent basis, Debye-Ang):
   XX=             -4.4356   YY=             -5.9094   ZZ=             -7.1112
   XY=             -0.1106   XZ=              0.0000   YZ=             -0.0000

 Normal termination of Gaussian 16 at Wed Feb  8 14:41:18 2023.
