 Gaussian 16, Revision C.01,
 Gaussian 16:  ES64L-G16RevC.01  3-Jul-2019

 ---------------------------------
 #P B3LYP/6-31g* scf(maxcycle=200)
 ---------------------------------

 --------------
 Gaussian input
 --------------
 Symbolic Z-matrix:
 Charge =  0 Multiplicity = 1

                         Standard orientation:
 ---------------------------------------------------------------------
 Center     Atomic      Atomic             Coordinates (Angstroms)
 Number     Number       Type             X           Y           Z
 ---------------------------------------------------------------------
      1          8           0        0.000000    0.000000    0.090281
      2          1           0        0.000000    0.788996   -0.361124
      3          1           0       -0.000000   -0.788996   -0.361124
 ---------------------------------------------------------------------

 SCF Done:  E(RB3LYP) =  -76.3966335874     A.U. after    9 cycles

 The electronic state is 1-A1.
 Alpha  occ. eigenvalues --  -19.11893  -1.01005  -0.56864  -0.34337  -0.29057
 Alpha virt. eigenvalues --    0.08000   0.17044   0.84033   0.89014   0.89240
 Alpha virt. eigenvalues --    0.89406   1.09761   1.17112   1.71816   1.76711
 Alpha virt. eigenvalues --    1.79055   2.41244   2.63137   3.61322

 Mulliken charges:
               1
     1  O   -0.809526
     2  H    0.404763
     3  H    0.404763
 Sum of Mulliken charges =  -0.00000

 Dipole moment (field-independent basis, Debye):
    X=             -0.0000    Y=              0.0000    Z=             -1.7810  Tot=              1.7810
 Quadrupole moment (field-independent basis, Debye-Ang):
   XX=             -7.0792   YY=             -3.7024   ZZ=             -6.3415
   XY=              0.0000   XZ=              0.0000   YZ=             -0.0000

 Normal termination of Gaussian 16 at Wed Feb  8 14:49:49 2023.
