 Gaussian 16, Revision C.01,
 Gaussian 16:  ES64L-G16RevC.01  3-Jul-2019

 -----------------------------------
 #P HF/aug-cc-pVDZ scf(maxcycle=200)
 -----------------------------------

 --------------
 Gaussian input
 --------------
 Symbolic Z-matrix:
 Charge =  0 Multiplicity = 1

                         Standard orientation:
 ---------------------------------------------------------------------
 Center     Atomic      Atomic             Coordinates (Angstroms)
 Number     Number       Type             X           Y           Z
 ---------------------------------------------------------------------
      1          8           0       -0.000000    0.000000    0.142133
      2          1           0        0.000000    0.716267   -0.568531
      3          1           0       -0.000000   -0.716267   -0.568531
 ---------------------------------------------------------------------

 SCF Done:  E(RHF) =  -76.0288818343     A.U. after   10 cycles

 The electronic state is 1-A1.
 Alpha  occ. eigenvalues --  -20.59175  -1.34131  -0.66478  -0.60313  -0.50964
 Alpha virt. eigenvalues --    0.03312   0.05889   0.17290   0.20056   0.21978
 Alpha virt. eigenvalues --    0.23737   0.26855   0.34778   0.37127   0.39056
 Alpha virt. eigenvalues --    0.40655   0.54529   0.62975   0.65473   0.76260

 Mulliken charges:
               1
     1  O   -0.391125
     2  H    0.195562
     3  H    0.195562
 Sum of Mulliken charges =  -0.00000

 Dipole moment (field-independent basis, Debye):
    X=             -0.0000    Y=             -0.0000    Z=             -2.2602  Tot=              2.2602
 Quadrupole moment (field-independent basis, Debye-Ang):
   XX=             -7.6843   YY=             -4.8356   ZZ=             -5.8264
   XY=              0.0000   XZ=              0.0000   YZ=             -0.0000

 Normal termination of Gaussian 16 at Mon Feb 20 10:17:23 2023.
