 Gaussian 16, Revision C.01,
 Gaussian 16:  ES64L-G16RevC.01  3-Jul-2019

 ------------------------------
 #P HF/6-31g* scf(maxcycle=200)
 ------------------------------

 --------------
 Gaussian input
 --------------
 Symbolic Z-matrix:
 Charge =  0 Multiplicity = 1

                         Standard orientation:
 ---------------------------------------------------------------------
 Center     Atomic      Atomic             Coordinates (Angstroms)
 Number     Number       Type             X           Y           Z
 ---------------------------------------------------------------------
      1          8           0        0.000000    0.000000    0.101069
      2          1           0       -0.000000    0.755585   -0.404274
      3          1           0       -0.000000   -0.755585   -0.404274
 ---------------------------------------------------------------------

 SCF Done:  E(RHF) =  -76.0064082804     A.U. after   10 cycles

 The electronic state is 1-A1.
 Alpha  occ. eigenvalues --  -20.54649  -1.36114  -0.74984  -0.56339  -0.49859
 Alpha virt. eigenvalues --    0.22207   0.31599   1.08793   1.13255   1.16953
 Alpha virt. eigenvalues --    1.18859   1.40640   1.41857   2.01472   2.03274
 Alpha virt. eigenvalues --    2.06881   2.70320   3.02636   4.01211

 Mulliken charges:
               1
     1  O   -0.879922
     2  H    0.439961
     3  H    0.439961
 Sum of Mulliken charges =  -0.00000

 Dipole moment (field-independent basis, Debye):
    X=             -0.0000    Y=             -0.0000    Z=             -2.0357  Tot=              2.0357
 Quadrupole moment (field-independent basis, Debye-Ang):
   XX=             -7.1238   YY=             -3.8921   ZZ=             -6.1551
   XY=              0.0000   XZ=              0.0000   YZ=              0.0000

 Normal termination of Gaussian 16 at Wed Feb  8 15:04:51 2023.
