 Gaussian 16, Revision C.01,
 Gaussian 16:  ES64L-G16RevC.01  3-Jul-2019

 ------------------------------
 #P HF/6-31g* scf(maxcycle=200)
 ------------------------------

 --------------
 Gaussian input
 --------------
 Symbolic Z-matrix:
 Charge =  0 Multiplicity = 1

                         Standard orientation:
 ---------------------------------------------------------------------
 Center     Atomic      Atomic             Coordinates (Angstroms)
 Number     Number       Type             X           Y           Z
 ---------------------------------------------------------------------
      1          8           0        0.000000    0.097826    0.000000
      2          1           0        0.852703   -0.341012    0.000000
      3          1           0       -0.852703   -0.441598    0.000000
 ---------------------------------------------------------------------

 SCF Done:  E(RHF) =  -76.0001684564     A.U. after   10 cycles

 The electronic state is 1-A'.
 Alpha  occ. eigenvalues --  -20.55456  -1.31621  -0.71665  -0.53394  -0.48859
 Alpha virt. eigenvalues --    0.20239   0.29943   1.02712   1.10193   1.16230
 Alpha virt. eigenvalues --    1.17334   1.38215   1.39601   2.02950   2.07030
 Alpha virt. eigenvalues --    2.09058   2.64139   2.85913   3.98200

 Mulliken charges:
               1
     1  O   -0.899639
     2  H    0.451188
     3  H    0.448451
 Sum of Mulliken charges =  -0.00000

 Dipole moment (field-independent basis, Debye):
    X=              0.0306    Y=             -1.9440    Z=              0.0000  Tot=              1.9442
 Quadrupole moment (field-independent basis, Debye-Ang):
   XX=             -3.3247   YY=             -6.4020   ZZ=             -7.2842
   XY=              0.2042   XZ=              0.0000   YZ=              0.0000

 Normal termination of Gaussian 16 at Wed Feb  8 15:06:44 2023.
