 Gaussian 16, Revision C.01,
 Gaussian 16:  ES64L-G16RevC.01  3-Jul-2019

 ----------------------------------------
 #P PBE1PBE/aug-cc-pVDZ scf(maxcycle=200)
 ----------------------------------------

 --------------
 Gaussian input
 --------------
 Symbolic Z-matrix:
 Charge =  0 Multiplicity = 1

                         Standard orientation:
 ---------------------------------------------------------------------
 Center     Atomic      Atomic             Coordinates (Angstroms)
 Number     Number       Type             X           Y           Z
 ---------------------------------------------------------------------
      1          8           0        0.000000    0.000000    0.122709
      2          1           0       -0.000000    0.737052   -0.490835
      3          1           0       -0.000000   -0.737052   -0.490835
 ---------------------------------------------------------------------

 SCF Done:  E(RPBE1PBE) =  -76.3594707474     A.U. after    8 cycles

 The electronic state is 1-A1.
 Alpha  occ. eigenvalues --  -19.23214  -1.05113  -0.54421  -0.41891  -0.33396
 Alpha virt. eigenvalues --   -0.01245   0.03307   0.11188   0.13214   0.14556
 Alpha virt. eigenvalues --    0.16589   0.18897   0.24393   0.29389   0.29762
 Alpha virt. eigenvalues --    0.32816   0.45733   0.51696   0.54128   0.63041

 Mulliken charges:
               1
     1  O   -0.217015
     2  H    0.108507
     3  H    0.108507
 Sum of Mulliken charges =  -0.00000

 Dipole moment (field-independent basis, Debye):
    X=             -0.0000    Y=             -0.0000    Z=             -1.9251  Tot=              1.9251
 Quadrupole moment (field-independent basis, Debye-Ang):
   XX=             -7.7396   YY=             -4.6385   ZZ=             -6.3127
   XY=              0.0000   XZ=              0.0000   YZ=              0.0000

 Normal termination of Gaussian 16 at Mon Mar 20 17:34:29 2023.
