 Gaussian 16, Revision C.01,
 Gaussian 16:  ES64L-G16RevC.01  3-Jul-2019

 ----------------------------------------
 #P PBE1PBE/aug-cc-pVDZ scf(maxcycle=200)
 ----------------------------------------

 --------------
 Gaussian input
 --------------
 Symbolic Z-matrix:
 Charge =  0 Multiplicity = 1

                         Standard orientation:
 ---------------------------------------------------------------------
 Center     Atomic      Atomic             Coordinates (Angstroms)
 Number     Number       Type             X           Y           Z
 ---------------------------------------------------------------------
      1          8           0        0.000000    0.135276   -0.000000
      2          1           0        0.677987   -0.611996    0.000000
      3          1           0       -0.677987   -0.470211    0.000000
 ---------------------------------------------------------------------

 SCF Done:  E(RPBE1PBE) =  -76.3496079603     A.U. after    8 cycles

 The electronic state is 1-A'.
 Alpha  occ. eigenvalues --  -19.23502  -1.06136  -0.52382  -0.43816  -0.33612
 Alpha virt. eigenvalues --   -0.01494   0.03404   0.10816   0.13280   0.14371
 Alpha virt. eigenvalues --    0.16944   0.18589   0.25996   0.28228   0.29758
 Alpha virt. eigenvalues --    0.31779   0.46708   0.50215   0.55111   0.61568

 Mulliken charges:
               1
     1  O   -0.211274
     2  H    0.150361
     3  H    0.060913
 Sum of Mulliken charges =  -0.00000

 Dipole moment (field-independent basis, Debye):
    X=             -0.0610    Y=             -2.0592    Z=              0.0000  Tot=              2.0601
 Quadrupole moment (field-independent basis, Debye-Ang):
   XX=             -5.0702   YY=             -5.9953   ZZ=             -7.7176
   XY=             -0.1881   XZ=              0.0000   YZ=             -0.0000

 Normal termination of Gaussian 16 at Wed Mar 29 21:53:03 2023.
