 Gaussian 16, Revision C.01,
 Gaussian 16:  ES64L-G16RevC.01  3-Jul-2019

 ------------------------------
 #P HF/6-31g* scf(maxcycle=200)
 ------------------------------

 --------------
 Gaussian input
 --------------
 Symbolic Z-matrix:
 Charge =  0 Multiplicity = 1

                         Standard orientation:
 ---------------------------------------------------------------------
 Center     Atomic      Atomic             Coordinates (Angstroms)
 Number     Number       Type             X           Y           Z
 ---------------------------------------------------------------------
      1          8           0        0.000000    0.000000    0.106281
      2          1           0       -0.000000    0.737489   -0.425124
      3          1           0       -0.000000   -0.737489   -0.425124
 ---------------------------------------------------------------------

 SCF Done:  E(RHF) =  -76.0072352346     A.U. after   10 cycles

 The electronic state is 1-A1.
 Alpha  occ. eigenvalues --  -20.54872  -1.36477  -0.74230  -0.57170  -0.50016
 Alpha virt. eigenvalues --    0.22144   0.31623   1.06457   1.13648   1.16848
 Alpha virt. eigenvalues --    1.21043   1.40338   1.42700   2.01828   2.02022
 Alpha virt. eigenvalues --    2.06397   2.69052   3.03475   4.00443

 Mulliken charges:
               1
     1  O   -0.872101
     2  H    0.436050
     3  H    0.436050
 Sum of Mulliken charges =  -0.00000

 Dipole moment (field-independent basis, Debye):
    X=             -0.0000    Y=              0.0000    Z=             -2.1093  Tot=              2.1093
 Quadrupole moment (field-independent basis, Debye-Ang):
   XX=             -7.1238   YY=             -4.0581   ZZ=             -6.0565
   XY=              0.0000   XZ=              0.0000   YZ=             -0.0000

 Normal termination of Gaussian 16 at Wed Feb  8 15:04:50 2023.
