 Gaussian 16, Revision C.01,
 Gaussian 16:  ES64L-G16RevC.01  3-Jul-2019

 -----------------------------------
 #P HF/aug-cc-pVDZ scf(maxcycle=200)
 -----------------------------------

 --------------
 Gaussian input
 --------------
 Symbolic Z-matrix:
 Charge =  0 Multiplicity = 1

                         Standard orientation:
 ---------------------------------------------------------------------
 Center     Atomic      Atomic             Coordinates (Angstroms)
 Number     Number       Type             X           Y           Z
 ---------------------------------------------------------------------
      1          8           0       -0.000000    0.000000    0.120117
      2          1           0       -0.000000    0.747647   -0.480470
      3          1           0       -0.000000   -0.747647   -0.480470
 ---------------------------------------------------------------------

 SCF Done:  E(RHF) =  -76.0411101459     A.U. after   10 cycles

 The electronic state is 1-A1.
 Alpha  occ. eigenvalues --  -20.57848  -1.35723  -0.71423  -0.58939  -0.50989
 Alpha virt. eigenvalues --    0.03523   0.05810   0.17376   0.19700   0.22279
 Alpha virt. eigenvalues --    0.23213   0.28916   0.33441   0.38685   0.39988
 Alpha virt. eigenvalues --    0.43052   0.54099   0.64757   0.65861   0.80587

 Mulliken charges:
               1
     1  O   -0.297759
     2  H    0.148879
     3  H    0.148879
 Sum of Mulliken charges =  -0.00000

 Dipole moment (field-independent basis, Debye):
    X=             -0.0000    Y=             -0.0000    Z=             -2.0333  Tot=              2.0333
 Quadrupole moment (field-independent basis, Debye-Ang):
   XX=             -7.5895   YY=             -4.3656   ZZ=             -6.2021
   XY=              0.0000   XZ=              0.0000   YZ=              0.0000

 Normal termination of Gaussian 16 at Mon Feb 20 10:15:58 2023.
