 Gaussian 16, Revision C.01,
 Gaussian 16:  ES64L-G16RevC.01  3-Jul-2019

 ----------------------------------------
 #P PBE1PBE/aug-cc-pVDZ scf(maxcycle=200)
 ----------------------------------------

 --------------
 Gaussian input
 --------------
 Symbolic Z-matrix:
 Charge =  0 Multiplicity = 1

                         Standard orientation:
 ---------------------------------------------------------------------
 Center     Atomic      Atomic             Coordinates (Angstroms)
 Number     Number       Type             X           Y           Z
 ---------------------------------------------------------------------
      1          8           0        0.000000   -0.000000    0.103829
      2          1           0        0.000000    0.806330   -0.415317
      3          1           0       -0.000000   -0.806330   -0.415317
 ---------------------------------------------------------------------

 SCF Done:  E(RPBE1PBE) =  -76.3577138456     A.U. after    8 cycles

 The electronic state is 1-A1.
 Alpha  occ. eigenvalues --  -19.22656  -1.04153  -0.56900  -0.39286  -0.33113
 Alpha virt. eigenvalues --   -0.01118   0.03171   0.11367   0.13093   0.13982
 Alpha virt. eigenvalues --    0.16338   0.19873   0.22519   0.28589   0.32436
 Alpha virt. eigenvalues --    0.34918   0.44222   0.51988   0.53714   0.66262

 Mulliken charges:
               1
     1  O   -0.248015
     2  H    0.124007
     3  H    0.124007
 Sum of Mulliken charges =   0.00000

 Dipole moment (field-independent basis, Debye):
    X=             -0.0000    Y=              0.0000    Z=             -1.7109  Tot=              1.7109
 Quadrupole moment (field-independent basis, Debye-Ang):
   XX=             -7.7710   YY=             -4.0591   ZZ=             -6.7268
   XY=              0.0000   XZ=              0.0000   YZ=              0.0000

 Normal termination of Gaussian 16 at Mon Mar 20 17:59:15 2023.
