 Gaussian 16, Revision C.01,
 Gaussian 16:  ES64L-G16RevC.01  3-Jul-2019

 ------------------------------------
 #P wB97XD/6-311g** scf(maxcycle=200)
 ------------------------------------

 --------------
 Gaussian input
 --------------
 Symbolic Z-matrix:
 Charge =  0 Multiplicity = 1

                         Standard orientation:
 ---------------------------------------------------------------------
 Center     Atomic      Atomic             Coordinates (Angstroms)
 Number     Number       Type             X           Y           Z
 ---------------------------------------------------------------------
      1          8           0        0.000000    0.128584    0.000000
      2          1           0        0.744360   -0.476073    0.000000
      3          1           0       -0.744360   -0.552599    0.000000
 ---------------------------------------------------------------------

 SCF Done:  E(RwB97XD) =  -76.4204816390     A.U. after   12 cycles

 The electronic state is 1-A'.
 Alpha  occ. eigenvalues --  -19.23309  -1.09743  -0.59005  -0.47279  -0.38626
 Alpha virt. eigenvalues --    0.11163   0.18677   0.44203   0.51118   0.85423
 Alpha virt. eigenvalues --    0.85579   0.95178   1.16420   1.25487   1.36570
 Alpha virt. eigenvalues --    1.51147   1.76460   1.95690   2.13886   2.36945

 Mulliken charges:
               1
     1  O   -0.468652
     2  H    0.234753
     3  H    0.233899
 Sum of Mulliken charges =   0.00000

 Dipole moment (field-independent basis, Debye):
    X=              0.0454    Y=             -2.1862    Z=              0.0000  Tot=              2.1866
 Quadrupole moment (field-independent basis, Debye-Ang):
   XX=             -4.4514   YY=             -5.8693   ZZ=             -7.2194
   XY=              0.1068   XZ=              0.0000   YZ=              0.0000

 Normal termination of Gaussian 16 at Wed Feb  8 14:41:52 2023.
