 Gaussian 16, Revision C.01,
 Gaussian 16:  ES64L-G16RevC.01  3-Jul-2019

 ------------------------------
 #P HF/6-31g* scf(maxcycle=200)
 ------------------------------

 --------------
 Gaussian input
 --------------
 Symbolic Z-matrix:
 Charge =  0 Multiplicity = 1

                         Standard orientation:
 ---------------------------------------------------------------------
 Center     Atomic      Atomic             Coordinates (Angstroms)
 Number     Number       Type             X           Y           Z
 ---------------------------------------------------------------------
      1          8           0        0.000000    0.000000    0.123615
      2          1           0        0.000000    0.797536   -0.494460
      3          1           0       -0.000000   -0.797536   -0.494460
 ---------------------------------------------------------------------

 SCF Done:  E(RHF) =  -76.0036583969     A.U. after   10 cycles

 The electronic state is 1-A1.
 Alpha  occ. eigenvalues --  -20.57040  -1.31682  -0.67940  -0.56165  -0.49479
 Alpha virt. eigenvalues --    0.19896   0.28941   1.00022   1.09378   1.14698
 Alpha virt. eigenvalues --    1.16779   1.36709   1.43156   2.03261   2.04588
 Alpha virt. eigenvalues --    2.07637   2.55961   2.85720   3.94390

 Mulliken charges:
               1
     1  O   -0.857227
     2  H    0.428613
     3  H    0.428613
 Sum of Mulliken charges =  -0.00000

 Dipole moment (field-independent basis, Debye):
    X=             -0.0000    Y=              0.0000    Z=             -2.2662  Tot=              2.2662
 Quadrupole moment (field-independent basis, Debye-Ang):
   XX=             -7.3325   YY=             -4.0317   ZZ=             -5.9909
   XY=              0.0000   XZ=              0.0000   YZ=             -0.0000

 Normal termination of Gaussian 16 at Wed Feb  8 15:07:34 2023.
