 Gaussian 16, Revision C.01,
 Gaussian 16:  ES64L-G16RevC.01  3-Jul-2019

 ---------------------------------
 #P B3LYP/6-31g* scf(maxcycle=200)
 ---------------------------------

 --------------
 Gaussian input
 --------------
 Symbolic Z-matrix:
 Charge =  0 Multiplicity = 1

                         Standard orientation:
 ---------------------------------------------------------------------
 Center     Atomic      Atomic             Coordinates (Angstroms)
 Number     Number       Type             X           Y           Z
 ---------------------------------------------------------------------
      1          8           0        0.000000    0.117051    0.000000
      2          1           0        0.727232   -0.428307    0.000000
      3          1           0       -0.727232   -0.508101    0.000000
 ---------------------------------------------------------------------

 SCF Done:  E(RB3LYP) =  -76.4049623460     A.U. after    9 cycles

 The electronic state is 1-A'.
 Alpha  occ. eigenvalues --  -19.13263  -1.01533  -0.52826  -0.37712  -0.29430
 Alpha virt. eigenvalues --    0.07077   0.16048   0.78036   0.88429   0.89027
 Alpha virt. eigenvalues --    0.92047   1.07630   1.20359   1.71718   1.73932
 Alpha virt. eigenvalues --    1.77291   2.31851   2.64059   3.56793

 Mulliken charges:
               1
     1  O   -0.777523
     2  H    0.391805
     3  H    0.385718
 Sum of Mulliken charges =  -0.00000

 Dipole moment (field-independent basis, Debye):
    X=              0.0473    Y=             -2.1001    Z=              0.0000  Tot=              2.1006
 Quadrupole moment (field-independent basis, Debye-Ang):
   XX=             -4.3890   YY=             -5.9381   ZZ=             -7.1346
   XY=              0.1106   XZ=              0.0000   YZ=              0.0000

 Normal termination of Gaussian 16 at Wed Feb  8 14:50:08 2023.
