 Gaussian 16, Revision C.01,
 Gaussian 16:  ES64L-G16RevC.01  3-Jul-2019

 -----------------------------------
 #P HF/aug-cc-pVDZ scf(maxcycle=200)
 -----------------------------------

 --------------
 Gaussian input
 --------------
 Symbolic Z-matrix:
 Charge =  0 Multiplicity = 1

                         Standard orientation:
 ---------------------------------------------------------------------
 Center     Atomic      Atomic             Coordinates (Angstroms)
 Number     Number       Type             X           Y           Z
 ---------------------------------------------------------------------
      1          8           0       -0.000000   -0.000000    0.095733
      2          1           0       -0.000000    0.772761   -0.382933
      3          1           0       -0.000000   -0.772761   -0.382933
 ---------------------------------------------------------------------

 SCF Done:  E(RHF) =  -76.0368506263     A.U. after   10 cycles

 The electronic state is 1-A1.
 Alpha  occ. eigenvalues --  -20.56351  -1.37418  -0.77050  -0.57119  -0.51060
 Alpha virt. eigenvalues --    0.03710   0.05714   0.17398   0.19261   0.22387
 Alpha virt. eigenvalues --    0.22628   0.31159   0.32153   0.38314   0.43561
 Alpha virt. eigenvalues --    0.45996   0.53423   0.65479   0.66436   0.87442

 Mulliken charges:
               1
     1  O   -0.217652
     2  H    0.108826
     3  H    0.108826
 Sum of Mulliken charges =  -0.00000

 Dipole moment (field-independent basis, Debye):
    X=             -0.0000    Y=             -0.0000    Z=             -1.7578  Tot=              1.7578
 Quadrupole moment (field-independent basis, Debye-Ang):
   XX=             -7.4944   YY=             -3.9232   ZZ=             -6.5664
   XY=              0.0000   XZ=              0.0000   YZ=              0.0000

 Normal termination of Gaussian 16 at Mon Feb 20 10:14:51 2023.
