 Gaussian 16, Revision C.01,
 Gaussian 16:  ES64L-G16RevC.01  3-Jul-2019

 ----------------------------------------
 #P CCSD(T)/aug-cc-pVDZ scf(maxcycle=200)
 ----------------------------------------

 --------------
 Gaussian input
 --------------
 Symbolic Z-matrix:
 Charge =  0 Multiplicity = 1

                         Standard orientation:
 ---------------------------------------------------------------------
 Center     Atomic      Atomic             Coordinates (Angstroms)
 Number     Number       Type             X           Y           Z
 ---------------------------------------------------------------------
      1          8           0        0.000000    0.000000    0.112127
      2          1           0       -0.000000    0.778055   -0.448508
      3          1           0       -0.000000   -0.778055   -0.448508
 ---------------------------------------------------------------------

 SCF Done:  E(RHF) =  -76.0411023411     A.U. after   10 cycles
 E2 =    -0.2192843342D+00 EUMP2 =    -0.76260386675380D+02
 CCSD(T)
 CCSD(T)= -0.76273372133D+02

 The electronic state is 1-A1.
 Alpha  occ. eigenvalues --  -20.57572  -1.35294  -0.72584  -0.57757  -0.50814
 Alpha virt. eigenvalues --    0.03572   0.05757   0.17449   0.19631   0.22184
 Alpha virt. eigenvalues --    0.23023   0.29274   0.32532   0.38347   0.41164
 Alpha virt. eigenvalues --    0.43953   0.53495   0.64928   0.65717   0.82159

 Mulliken charges:
               1
     1  O   -0.310753
     2  H    0.155377
     3  H    0.155377
 Sum of Mulliken charges =  -0.00000

 Dipole moment (field-independent basis, Debye):
    X=             -0.0000    Y=              0.0000    Z=             -1.9345  Tot=              1.9345
 Quadrupole moment (field-independent basis, Debye-Ang):
   XX=             -7.6015   YY=             -4.1021   ZZ=             -6.3851
   XY=              0.0000   XZ=              0.0000   YZ=             -0.0000

 .2683722\CCSD=-76.2681716\CCSD(T)=-76.2733721\RMSD=5.593e-09\PG=C02V [
 Normal termination of Gaussian 16 at Wed Feb  8 14:49:26 2023.
