 Gaussian 16, Revision C.01,
 Gaussian 16:  ES64L-G16RevC.01  3-Jul-2019

 ------------------------------
 #P HF/6-31g* scf(maxcycle=200)
 ------------------------------

 --------------
 Gaussian input
 --------------
 Symbolic Z-matrix:
 Charge =  0 Multiplicity = 1

                         Standard orientation:
 ---------------------------------------------------------------------
 Center     Atomic      Atomic             Coordinates (Angstroms)
 Number     Number       Type             X           Y           Z
 ---------------------------------------------------------------------
      1          8           0        0.000000    0.000000    0.132693
      2          1           0        0.000000    0.692458   -0.530771
      3          1           0       -0.000000   -0.692458   -0.530771
 ---------------------------------------------------------------------

 SCF Done:  E(RHF) =  -76.0054770341     A.U. after   10 cycles

 The electronic state is 1-A1.
 Alpha  occ. eigenvalues --  -20.56697  -1.35201  -0.68157  -0.59598  -0.50244
 Alpha virt. eigenvalues --    0.20686   0.30241   0.97752   1.12940   1.16458
 Alpha virt. eigenvalues --    1.20664   1.37079   1.48236   1.99192   2.04403
 Alpha virt. eigenvalues --    2.05374   2.64660   2.89752   3.94440

 Mulliken charges:
               1
     1  O   -0.845348
     2  H    0.422674
     3  H    0.422674
 Sum of Mulliken charges =  -0.00000

 Dipole moment (field-independent basis, Debye):
    X=             -0.0000    Y=              0.0000    Z=             -2.4263  Tot=              2.4263
 Quadrupole moment (field-independent basis, Debye-Ang):
   XX=             -7.2333   YY=             -4.6931   ZZ=             -5.6442
   XY=              0.0000   XZ=              0.0000   YZ=             -0.0000

 Normal termination of Gaussian 16 at Wed Feb  8 15:06:02 2023.
