 Gaussian 16, Revision C.01,
 Gaussian 16:  ES64L-G16RevC.01  3-Jul-2019

 ----------------------------------------
 #P PBE1PBE/aug-cc-pVDZ scf(maxcycle=200)
 ----------------------------------------

 --------------
 Gaussian input
 --------------
 Symbolic Z-matrix:
 Charge =  0 Multiplicity = 1

                         Standard orientation:
 ---------------------------------------------------------------------
 Center     Atomic      Atomic             Coordinates (Angstroms)
 Number     Number       Type             X           Y           Z
 ---------------------------------------------------------------------
      1          8           0        0.000000    0.000000    0.103255
      2          1           0        0.000000    0.866916   -0.413018
      3          1           0       -0.000000   -0.866916   -0.413018
 ---------------------------------------------------------------------

 SCF Done:  E(RPBE1PBE) =  -76.3507143322     A.U. after    8 cycles

 The electronic state is 1-A1.
 Alpha  occ. eigenvalues --  -19.23160  -1.01907  -0.55405  -0.38113  -0.32593
 Alpha virt. eigenvalues --   -0.01613   0.02883   0.10927   0.13128   0.13190
 Alpha virt. eigenvalues --    0.15430   0.19412   0.21679   0.27884   0.32529
 Alpha virt. eigenvalues --    0.34878   0.42807   0.50092   0.52185   0.66294

 Mulliken charges:
               1
     1  O   -0.366054
     2  H    0.183027
     3  H    0.183027
 Sum of Mulliken charges =  -0.00000

 Dipole moment (field-independent basis, Debye):
    X=             -0.0000    Y=              0.0000    Z=             -1.6586  Tot=              1.6586
 Quadrupole moment (field-independent basis, Debye-Ang):
   XX=             -7.9047   YY=             -3.7351   ZZ=             -6.9014
   XY=              0.0000   XZ=              0.0000   YZ=             -0.0000

 Normal termination of Gaussian 16 at Wed Mar 29 21:53:55 2023.
