 Gaussian 16, Revision C.01,
 Gaussian 16:  ES64L-G16RevC.01  3-Jul-2019

 ----------------------------------------
 #P CCSD(T)/aug-cc-pVTZ scf(maxcycle=200)
 ----------------------------------------

 --------------
 Gaussian input
 --------------
 Symbolic Z-matrix:
 Charge =  0 Multiplicity = 1

                         Standard orientation:
 ---------------------------------------------------------------------
 Center     Atomic      Atomic             Coordinates (Angstroms)
 Number     Number       Type             X           Y           Z
 ---------------------------------------------------------------------
      1          8           0        0.000000    0.000000    0.100213
      2          1           0        0.000000    0.875794   -0.400852
      3          1           0       -0.000000   -0.875794   -0.400852
 ---------------------------------------------------------------------

 SCF Done:  E(RHF) =  -76.0461289482     A.U. after   10 cycles
 E2 =    -0.2718451884D+00 EUMP2 =    -0.76317974136528D+02
 CCSD(T)
 CCSD(T)= -0.76331312753D+02

 The electronic state is 1-A1.
 Alpha  occ. eigenvalues --  -20.56735  -1.31859  -0.71493  -0.54553  -0.50074
 Alpha virt. eigenvalues --    0.02946   0.04648   0.13735   0.15869   0.16762
 Alpha virt. eigenvalues --    0.17912   0.22884   0.24010   0.25884   0.31615
 Alpha virt. eigenvalues --    0.32160   0.36260   0.42199   0.45766   0.60889

 Mulliken charges:
               1
     1  O   -0.526753
     2  H    0.263376
     3  H    0.263376
 Sum of Mulliken charges =   0.00000

 Dipole moment (field-independent basis, Debye):
    X=             -0.0000    Y=             -0.0000    Z=             -1.7280  Tot=              1.7280
 Quadrupole moment (field-independent basis, Debye-Ang):
   XX=             -7.7125   YY=             -3.3635   ZZ=             -6.7792
   XY=              0.0000   XZ=              0.0000   YZ=             -0.0000

 .3227347\CCSD=-76.3221996\CCSD(T)=-76.3313128\RMSD=5.385e-09\PG=C02V [
 Normal termination of Gaussian 16 at Wed Feb  8 13:58:45 2023.
