 Gaussian 16, Revision C.01,
 Gaussian 16:  ES64L-G16RevC.01  3-Jul-2019

 ----------------------------------------
 #P CCSD(T)/aug-cc-pVDZ scf(maxcycle=200)
 ----------------------------------------

 --------------
 Gaussian input
 --------------
 Symbolic Z-matrix:
 Charge =  0 Multiplicity = 1

                         Standard orientation:
 ---------------------------------------------------------------------
 Center     Atomic      Atomic             Coordinates (Angstroms)
 Number     Number       Type             X           Y           Z
 ---------------------------------------------------------------------
      1          8           0       -0.000000    0.000000    0.103691
      2          1           0       -0.000000    0.746651   -0.414762
      3          1           0       -0.000000   -0.746651   -0.414762
 ---------------------------------------------------------------------

 SCF Done:  E(RHF) =  -76.0387119772     A.U. after   10 cycles
 E2 =    -0.2149408772D+00 EUMP2 =    -0.76253652854387D+02
 CCSD(T)
 CCSD(T)= -0.76266534386D+02

 The electronic state is 1-A1.
 Alpha  occ. eigenvalues --  -20.56623  -1.37855  -0.75906  -0.58294  -0.51221
 Alpha virt. eigenvalues --    0.03667   0.05764   0.17330   0.19340   0.22490
 Alpha virt. eigenvalues --    0.22811   0.30767   0.32983   0.38620   0.42318
 Alpha virt. eigenvalues --    0.45039   0.54048   0.65657   0.66234   0.85608

 Mulliken charges:
               1
     1  O   -0.199569
     2  H    0.099784
     3  H    0.099784
 Sum of Mulliken charges =  -0.00000

 Dipole moment (field-independent basis, Debye):
    X=             -0.0000    Y=              0.0000    Z=             -1.8623  Tot=              1.8623
 Quadrupole moment (field-independent basis, Debye-Ang):
   XX=             -7.4820   YY=             -4.1542   ZZ=             -6.4001
   XY=              0.0000   XZ=              0.0000   YZ=              0.0000

 792\CCSD=-76.2616901\CCSD(T)=-76.2665344\RMSD=3.303e-09\PG=C02V [C2(O1
 Normal termination of Gaussian 16 at Wed Feb  8 14:47:11 2023.
