 Gaussian 16, Revision C.01,
 Gaussian 16:  ES64L-G16RevC.01  3-Jul-2019

 ----------------------------------------
 #P PBE1PBE/aug-cc-pVDZ scf(maxcycle=200)
 ----------------------------------------

 --------------
 Gaussian input
 --------------
 Symbolic Z-matrix:
 Charge =  0 Multiplicity = 1

                         Standard orientation:
 ---------------------------------------------------------------------
 Center     Atomic      Atomic             Coordinates (Angstroms)
 Number     Number       Type             X           Y           Z
 ---------------------------------------------------------------------
      1          8           0        0.000000    0.132889   -0.000000
      2          1           0        0.689555   -0.603721    0.000000
      3          1           0       -0.689555   -0.459390    0.000000
 ---------------------------------------------------------------------

 SCF Done:  E(RPBE1PBE) =  -76.3510205156     A.U. after    8 cycles

 The electronic state is 1-A'.
 Alpha  occ. eigenvalues --  -19.23435  -1.05961  -0.52807  -0.43421  -0.33571
 Alpha virt. eigenvalues --   -0.01452   0.03383   0.10872   0.13265   0.14347
 Alpha virt. eigenvalues --    0.16922   0.18640   0.25705   0.28518   0.29675
 Alpha virt. eigenvalues --    0.31989   0.46527   0.50309   0.55046   0.61911

 Mulliken charges:
               1
     1  O   -0.210495
     2  H    0.151066
     3  H    0.059429
 Sum of Mulliken charges =  -0.00000

 Dipole moment (field-independent basis, Debye):
    X=             -0.0593    Y=             -2.0338    Z=              0.0000  Tot=              2.0347
 Quadrupole moment (field-independent basis, Debye-Ang):
   XX=             -4.9869   YY=             -6.0529   ZZ=             -7.7212
   XY=             -0.1981   XZ=             -0.0000   YZ=             -0.0000

 Normal termination of Gaussian 16 at Mon Mar 20 17:34:59 2023.
