 Gaussian 16, Revision C.01,
 Gaussian 16:  ES64L-G16RevC.01  3-Jul-2019

 ------------------------------
 #P HF/6-31g* scf(maxcycle=200)
 ------------------------------

 --------------
 Gaussian input
 --------------
 Symbolic Z-matrix:
 Charge =  0 Multiplicity = 1

                         Standard orientation:
 ---------------------------------------------------------------------
 Center     Atomic      Atomic             Coordinates (Angstroms)
 Number     Number       Type             X           Y           Z
 ---------------------------------------------------------------------
      1          8           0        0.000000    0.131163    0.000000
      2          1           0        0.733064   -0.487140    0.000000
      3          1           0       -0.733064   -0.562161    0.000000
 ---------------------------------------------------------------------

 SCF Done:  E(RHF) =  -76.0051607472     A.U. after   10 cycles

 The electronic state is 1-A'.
 Alpha  occ. eigenvalues --  -20.57003  -1.33592  -0.67787  -0.58239  -0.49957
 Alpha virt. eigenvalues --    0.20266   0.29556   0.97821   1.12842   1.16547
 Alpha virt. eigenvalues --    1.16911   1.36683   1.46730   2.00615   2.04558
 Alpha virt. eigenvalues --    2.06333   2.59248   2.88275   3.94144

 Mulliken charges:
               1
     1  O   -0.847300
     2  H    0.428046
     3  H    0.419254
 Sum of Mulliken charges =  -0.00000

 Dipole moment (field-independent basis, Debye):
    X=              0.0476    Y=             -2.3821    Z=              0.0000  Tot=              2.3826
 Quadrupole moment (field-independent basis, Debye-Ang):
   XX=             -4.4761   YY=             -5.7514   ZZ=             -7.2828
   XY=              0.1030   XZ=              0.0000   YZ=              0.0000

 Normal termination of Gaussian 16 at Wed Feb  8 15:06:31 2023.
