 Gaussian 16, Revision C.01,
 Gaussian 16:  ES64L-G16RevC.01  3-Jul-2019

 ---------------------------------
 #P B3LYP/6-31g* scf(maxcycle=200)
 ---------------------------------

 --------------
 Gaussian input
 --------------
 Symbolic Z-matrix:
 Charge =  0 Multiplicity = 1

                         Standard orientation:
 ---------------------------------------------------------------------
 Center     Atomic      Atomic             Coordinates (Angstroms)
 Number     Number       Type             X           Y           Z
 ---------------------------------------------------------------------
      1          8           0        0.000000    0.123310    0.000000
      2          1           0        0.766259   -0.533141   -0.000000
      3          1           0       -0.766259   -0.453342    0.000000
 ---------------------------------------------------------------------

 SCF Done:  E(RB3LYP) =  -76.4074915979     A.U. after    9 cycles

 The electronic state is 1-A'.
 Alpha  occ. eigenvalues --  -19.14134  -0.99301  -0.50949  -0.37370  -0.29062
 Alpha virt. eigenvalues --    0.05723   0.14279   0.75845   0.85365   0.89058
 Alpha virt. eigenvalues --    0.89442   1.06210   1.19602   1.72895   1.75030
 Alpha virt. eigenvalues --    1.78083   2.25787   2.55404   3.54258

 Mulliken charges:
               1
     1  O   -0.767595
     2  H    0.378900
     3  H    0.388694
 Sum of Mulliken charges =  -0.00000

 Dipole moment (field-independent basis, Debye):
    X=             -0.0501    Y=             -2.1169    Z=             -0.0000  Tot=              2.1175
 Quadrupole moment (field-independent basis, Debye-Ang):
   XX=             -4.3259   YY=             -5.9579   ZZ=             -7.2335
   XY=             -0.1117   XZ=              0.0000   YZ=              0.0000

 Normal termination of Gaussian 16 at Wed Feb  8 14:52:13 2023.
