 Gaussian 16, Revision C.01,
 Gaussian 16:  ES64L-G16RevC.01  3-Jul-2019

 ---------------------------------
 #P B3LYP/6-31g* scf(maxcycle=200)
 ---------------------------------

 --------------
 Gaussian input
 --------------
 Symbolic Z-matrix:
 Charge =  0 Multiplicity = 1

                         Standard orientation:
 ---------------------------------------------------------------------
 Center     Atomic      Atomic             Coordinates (Angstroms)
 Number     Number       Type             X           Y           Z
 ---------------------------------------------------------------------
      1          8           0        0.000000   -0.000000    0.129106
      2          1           0       -0.000000    0.775480   -0.516426
      3          1           0       -0.000000   -0.775480   -0.516426
 ---------------------------------------------------------------------

 SCF Done:  E(RB3LYP) =  -76.4062573388     A.U. after   10 cycles

 The electronic state is 1-A1.
 Alpha  occ. eigenvalues --  -19.14676  -0.98410  -0.49741  -0.37633  -0.28971
 Alpha virt. eigenvalues --    0.05082   0.13211   0.74559   0.82982   0.89015
 Alpha virt. eigenvalues --    0.89363   1.05434   1.20048   1.72926   1.75708
 Alpha virt. eigenvalues --    1.78206   2.23451   2.50150   3.52650

 Mulliken charges:
               1
     1  O   -0.756273
     2  H    0.378136
     3  H    0.378136
 Sum of Mulliken charges =  -0.00000

 Dipole moment (field-independent basis, Debye):
    X=             -0.0000    Y=              0.0000    Z=             -2.1520  Tot=              2.1520
 Quadrupole moment (field-independent basis, Debye-Ang):
   XX=             -7.2826   YY=             -4.3862   ZZ=             -5.9178
   XY=              0.0000   XZ=              0.0000   YZ=              0.0000

 Normal termination of Gaussian 16 at Wed Feb  8 14:52:37 2023.
