 Gaussian 16, Revision C.01,
 Gaussian 16:  ES64L-G16RevC.01  3-Jul-2019

 ---------------------------------
 #P B3LYP/6-31g* scf(maxcycle=200)
 ---------------------------------

 --------------
 Gaussian input
 --------------
 Symbolic Z-matrix:
 Charge =  0 Multiplicity = 1

                         Standard orientation:
 ---------------------------------------------------------------------
 Center     Atomic      Atomic             Coordinates (Angstroms)
 Number     Number       Type             X           Y           Z
 ---------------------------------------------------------------------
      1          8           0        0.000000    0.000000    0.100213
      2          1           0        0.000000    0.875794   -0.400852
      3          1           0       -0.000000   -0.875794   -0.400852
 ---------------------------------------------------------------------

 SCF Done:  E(RB3LYP) =  -76.3982166539     A.U. after    8 cycles

 The electronic state is 1-A1.
 Alpha  occ. eigenvalues --  -19.13432  -0.96828  -0.52537  -0.33555  -0.28182
 Alpha virt. eigenvalues --    0.04752   0.13968   0.75407   0.82051   0.89597
 Alpha virt. eigenvalues --    0.89744   1.08818   1.13548   1.74497   1.78430
 Alpha virt. eigenvalues --    1.80488   2.28676   2.46528   3.55495

 Mulliken charges:
               1
     1  O   -0.797638
     2  H    0.398819
     3  H    0.398819
 Sum of Mulliken charges =   0.00000

 Dipole moment (field-independent basis, Debye):
    X=             -0.0000    Y=              0.0000    Z=             -1.8221  Tot=              1.8221
 Quadrupole moment (field-independent basis, Debye-Ang):
   XX=             -7.2800   YY=             -3.4400   ZZ=             -6.4322
   XY=              0.0000   XZ=              0.0000   YZ=             -0.0000

 Normal termination of Gaussian 16 at Wed Feb  8 14:52:48 2023.
