 Gaussian 16, Revision C.01,
 Gaussian 16:  ES64L-G16RevC.01  3-Jul-2019

 ----------------------------------------
 #P CCSD(T)/aug-cc-pVTZ scf(maxcycle=200)
 ----------------------------------------

 --------------
 Gaussian input
 --------------
 Symbolic Z-matrix:
 Charge =  0 Multiplicity = 1

                         Standard orientation:
 ---------------------------------------------------------------------
 Center     Atomic      Atomic             Coordinates (Angstroms)
 Number     Number       Type             X           Y           Z
 ---------------------------------------------------------------------
      1          8           0        0.000000    0.000000    0.095247
      2          1           0        0.000000    0.832395   -0.380988
      3          1           0       -0.000000   -0.832395   -0.380988
 ---------------------------------------------------------------------

 SCF Done:  E(RHF) =  -76.0553103564     A.U. after   10 cycles
 E2 =    -0.2679281485D+00 EUMP2 =    -0.76323238504883D+02
 CCSD(T)
 CCSD(T)= -0.76336498821D+02

 The electronic state is 1-A1.
 Alpha  occ. eigenvalues --  -20.55973  -1.34199  -0.74424  -0.55432  -0.50520
 Alpha virt. eigenvalues --    0.03024   0.04675   0.13779   0.15580   0.17046
 Alpha virt. eigenvalues --    0.17945   0.23259   0.24192   0.25968   0.31830
 Alpha virt. eigenvalues --    0.32380   0.36337   0.43439   0.46580   0.61170

 Mulliken charges:
               1
     1  O   -0.449270
     2  H    0.224635
     3  H    0.224635
 Sum of Mulliken charges =   0.00000

 Dipole moment (field-independent basis, Debye):
    X=             -0.0000    Y=              0.0000    Z=             -1.6974  Tot=              1.6974
 Quadrupole moment (field-independent basis, Debye-Ang):
   XX=             -7.5950   YY=             -3.5558   ZZ=             -6.7180
   XY=              0.0000   XZ=              0.0000   YZ=             -0.0000

 .3283742\CCSD=-76.327895\CCSD(T)=-76.3364988\RMSD=3.174e-09\PG=C02V [C
 Normal termination of Gaussian 16 at Wed Feb  8 13:53:31 2023.
