 Gaussian 16, Revision C.01,
 Gaussian 16:  ES64L-G16RevC.01  3-Jul-2019

 ---------------------------------
 #P B3LYP/6-31g* scf(maxcycle=200)
 ---------------------------------

 --------------
 Gaussian input
 --------------
 Symbolic Z-matrix:
 Charge =  0 Multiplicity = 1

                         Standard orientation:
 ---------------------------------------------------------------------
 Center     Atomic      Atomic             Coordinates (Angstroms)
 Number     Number       Type             X           Y           Z
 ---------------------------------------------------------------------
      1          8           0       -0.000000    0.000000    0.142133
      2          1           0        0.000000    0.716267   -0.568531
      3          1           0       -0.000000   -0.716267   -0.568531
 ---------------------------------------------------------------------

 SCF Done:  E(RB3LYP) =  -76.4024002132     A.U. after   10 cycles

 The electronic state is 1-A1.
 Alpha  occ. eigenvalues --  -19.15168  -0.99299  -0.47960  -0.39735  -0.29309
 Alpha virt. eigenvalues --    0.04775   0.12906   0.72056   0.84372   0.88768
 Alpha virt. eigenvalues --    0.89512   1.04561   1.23998   1.71014   1.76401
 Alpha virt. eigenvalues --    1.77045   2.26498   2.45746   3.50713

 Mulliken charges:
               1
     1  O   -0.739089
     2  H    0.369545
     3  H    0.369545
 Sum of Mulliken charges =   0.00000

 Dipole moment (field-independent basis, Debye):
    X=             -0.0000    Y=              0.0000    Z=             -2.2905  Tot=              2.2905
 Quadrupole moment (field-independent basis, Debye-Ang):
   XX=             -7.2861   YY=             -4.8667   ZZ=             -5.6447
   XY=              0.0000   XZ=              0.0000   YZ=             -0.0000

 Normal termination of Gaussian 16 at Wed Feb  8 14:52:24 2023.
