 Gaussian 16, Revision C.01,
 Gaussian 16:  ES64L-G16RevC.01  3-Jul-2019

 ------------------------------
 #P HF/6-31g* scf(maxcycle=200)
 ------------------------------

 --------------
 Gaussian input
 --------------
 Symbolic Z-matrix:
 Charge =  0 Multiplicity = 1

                         Standard orientation:
 ---------------------------------------------------------------------
 Center     Atomic      Atomic             Coordinates (Angstroms)
 Number     Number       Type             X           Y           Z
 ---------------------------------------------------------------------
      1          8           0        0.000000   -0.000000    0.144611
      2          1           0       -0.000000    0.703755   -0.578445
      3          1           0       -0.000000   -0.703755   -0.578445
 ---------------------------------------------------------------------

 SCF Done:  E(RHF) =  -75.9966207833     A.U. after   10 cycles

 The electronic state is 1-A1.
 Alpha  occ. eigenvalues --  -20.57905  -1.33035  -0.64972  -0.59439  -0.50129
 Alpha virt. eigenvalues --    0.19522   0.28547   0.95042   1.11992   1.15203
 Alpha virt. eigenvalues --    1.16315   1.35180   1.49769   2.00292   2.05692
 Alpha virt. eigenvalues --    2.05829   2.60306   2.79210   3.91216

 Mulliken charges:
               1
     1  O   -0.828863
     2  H    0.414431
     3  H    0.414431
 Sum of Mulliken charges =  -0.00000

 Dipole moment (field-independent basis, Debye):
    X=             -0.0000    Y=              0.0000    Z=             -2.5276  Tot=              2.5276
 Quadrupole moment (field-independent basis, Debye-Ang):
   XX=             -7.3365   YY=             -4.8462   ZZ=             -5.5160
   XY=              0.0000   XZ=              0.0000   YZ=              0.0000

 Normal termination of Gaussian 16 at Wed Feb  8 15:07:21 2023.
