 Gaussian 16, Revision C.01,
 Gaussian 16:  ES64L-G16RevC.01  3-Jul-2019

 ----------------------------------------
 #P CCSD(T)/aug-cc-pVDZ scf(maxcycle=200)
 ----------------------------------------

 --------------
 Gaussian input
 --------------
 Symbolic Z-matrix:
 Charge =  0 Multiplicity = 1

                         Standard orientation:
 ---------------------------------------------------------------------
 Center     Atomic      Atomic             Coordinates (Angstroms)
 Number     Number       Type             X           Y           Z
 ---------------------------------------------------------------------
      1          8           0       -0.000000    0.143443   -0.000000
      2          1           0        0.673280   -0.608072   -0.000000
      3          1           0       -0.673280   -0.539473    0.000000
 ---------------------------------------------------------------------

 SCF Done:  E(RHF) =  -76.0282006046     A.U. after   10 cycles
 E2 =    -0.2237805954D+00 EUMP2 =    -0.76251981200047D+02
 CCSD(T)
 CCSD(T)= -0.76264786662D+02

 The electronic state is 1-A'.
 Alpha  occ. eigenvalues --  -20.58887  -1.35754  -0.66813  -0.61592  -0.51243
 Alpha virt. eigenvalues --    0.03308   0.05940   0.17167   0.19993   0.22100
 Alpha virt. eigenvalues --    0.23749   0.27539   0.35700   0.36947   0.39373
 Alpha virt. eigenvalues --    0.40635   0.55256   0.63198   0.66018   0.76430

 Mulliken charges:
               1
     1  O   -0.342342
     2  H    0.195254
     3  H    0.147088
 Sum of Mulliken charges =  -0.00000

 Dipole moment (field-independent basis, Debye):
    X=             -0.0326    Y=             -2.2949    Z=              0.0000  Tot=              2.2951
 Quadrupole moment (field-independent basis, Debye-Ang):
   XX=             -5.0547   YY=             -5.7016   ZZ=             -7.6209
   XY=             -0.0876   XZ=             -0.0000   YZ=             -0.0000

 2594214\CCSD=-76.2591846\CCSD(T)=-76.2647867\RMSD=7.351e-09\PG=CS [SG(
 Normal termination of Gaussian 16 at Wed Feb  8 14:50:35 2023.
