 Gaussian 16, Revision C.01,
 Gaussian 16:  ES64L-G16RevC.01  3-Jul-2019

 ----------------------------------------
 #P PBE1PBE/aug-cc-pVDZ scf(maxcycle=200)
 ----------------------------------------

 --------------
 Gaussian input
 --------------
 Symbolic Z-matrix:
 Charge =  0 Multiplicity = 1

                         Standard orientation:
 ---------------------------------------------------------------------
 Center     Atomic      Atomic             Coordinates (Angstroms)
 Number     Number       Type             X           Y           Z
 ---------------------------------------------------------------------
      1          8           0       -0.000000   -0.000000    0.093021
      2          1           0        0.000000    0.780998   -0.372085
      3          1           0       -0.000000   -0.780998   -0.372085
 ---------------------------------------------------------------------

 SCF Done:  E(RPBE1PBE) =  -76.3509278539     A.U. after    8 cycles

 The electronic state is 1-A1.
 Alpha  occ. eigenvalues --  -19.21723  -1.06148  -0.59796  -0.39064  -0.33511
 Alpha virt. eigenvalues --   -0.00698   0.03342   0.11561   0.12916   0.14510
 Alpha virt. eigenvalues --    0.16704   0.21386   0.22673   0.28876   0.34028
 Alpha virt. eigenvalues --    0.36288   0.44667   0.53730   0.54501   0.69313

 Mulliken charges:
               1
     1  O   -0.144580
     2  H    0.072290
     3  H    0.072290
 Sum of Mulliken charges =   0.00000

 Dipole moment (field-independent basis, Debye):
    X=             -0.0000    Y=             -0.0000    Z=             -1.6222  Tot=              1.6222
 Quadrupole moment (field-independent basis, Debye-Ang):
   XX=             -7.6508   YY=             -4.0537   ZZ=             -6.7753
   XY=              0.0000   XZ=              0.0000   YZ=              0.0000

 Normal termination of Gaussian 16 at Mon Mar 20 17:33:07 2023.
