 Gaussian 16, Revision C.01,
 Gaussian 16:  ES64L-G16RevC.01  3-Jul-2019

 ----------------------------------------
 #P CCSD(T)/aug-cc-pVTZ scf(maxcycle=200)
 ----------------------------------------

 --------------
 Gaussian input
 --------------
 Symbolic Z-matrix:
 Charge =  0 Multiplicity = 1

                         Standard orientation:
 ---------------------------------------------------------------------
 Center     Atomic      Atomic             Coordinates (Angstroms)
 Number     Number       Type             X           Y           Z
 ---------------------------------------------------------------------
      1          8           0       -0.000000   -0.000000    0.130255
      2          1           0        0.000000    0.703931   -0.521022
      3          1           0       -0.000000   -0.703931   -0.521022
 ---------------------------------------------------------------------

 SCF Done:  E(RHF) =  -76.0570363544     A.U. after   10 cycles
 E2 =    -0.2695185932D+00 EUMP2 =    -0.76326554947647D+02
 CCSD(T)
 CCSD(T)= -0.76339798442D+02

 The electronic state is 1-A1.
 Alpha  occ. eigenvalues --  -20.57160  -1.36038  -0.69607  -0.60462  -0.51306
 Alpha virt. eigenvalues --    0.02870   0.04832   0.13426   0.16019   0.17689
 Alpha virt. eigenvalues --    0.18552   0.22425   0.24638   0.26904   0.29057
 Alpha virt. eigenvalues --    0.30509   0.36805   0.43608   0.46585   0.59344

 Mulliken charges:
               1
     1  O   -0.445057
     2  H    0.222529
     3  H    0.222529
 Sum of Mulliken charges =  -0.00000

 Dipole moment (field-independent basis, Debye):
    X=             -0.0000    Y=              0.0000    Z=             -2.1421  Tot=              2.1421
 Quadrupole moment (field-independent basis, Debye-Ang):
   XX=             -7.5481   YY=             -4.6887   ZZ=             -5.9344
   XY=              0.0000   XZ=              0.0000   YZ=              0.0000

 .331556\CCSD=-76.3310632\CCSD(T)=-76.3397984\RMSD=3.770e-09\PG=C02V [C
 Normal termination of Gaussian 16 at Wed Feb  8 13:53:14 2023.
