 Gaussian 16, Revision C.01,
 Gaussian 16:  ES64L-G16RevC.01  3-Jul-2019

 ------------------------------
 #P HF/6-31g* scf(maxcycle=200)
 ------------------------------

 --------------
 Gaussian input
 --------------
 Symbolic Z-matrix:
 Charge =  0 Multiplicity = 1

                         Standard orientation:
 ---------------------------------------------------------------------
 Center     Atomic      Atomic             Coordinates (Angstroms)
 Number     Number       Type             X           Y           Z
 ---------------------------------------------------------------------
      1          8           0        0.000000    0.114495    0.000000
      2          1           0        0.737286   -0.498767   -0.000000
      3          1           0       -0.737286   -0.417192    0.000000
 ---------------------------------------------------------------------

 SCF Done:  E(RHF) =  -76.0087747257     A.U. after   10 cycles

 The electronic state is 1-A'.
 Alpha  occ. eigenvalues --  -20.55575  -1.35497  -0.71995  -0.57527  -0.49972
 Alpha virt. eigenvalues --    0.21503   0.31037   1.02986   1.13540   1.16765
 Alpha virt. eigenvalues --    1.20205   1.39153   1.43630   2.01393   2.02792
 Alpha virt. eigenvalues --    2.06377   2.64734   2.99389   3.98320

 Mulliken charges:
               1
     1  O   -0.865852
     2  H    0.431755
     3  H    0.434097
 Sum of Mulliken charges =   0.00000

 Dipole moment (field-independent basis, Debye):
    X=             -0.0393    Y=             -2.2045    Z=             -0.0000  Tot=              2.2049
 Quadrupole moment (field-independent basis, Debye-Ang):
   XX=             -4.1843   YY=             -5.9598   ZZ=             -7.1773
   XY=             -0.1279   XZ=              0.0000   YZ=              0.0000

 Normal termination of Gaussian 16 at Wed Feb  8 15:05:53 2023.
