 Gaussian 16, Revision C.01,
 Gaussian 16:  ES64L-G16RevC.01  3-Jul-2019

 ---------------------------------
 #P B3LYP/6-31g* scf(maxcycle=200)
 ---------------------------------

 --------------
 Gaussian input
 --------------
 Symbolic Z-matrix:
 Charge =  0 Multiplicity = 1

                         Standard orientation:
 ---------------------------------------------------------------------
 Center     Atomic      Atomic             Coordinates (Angstroms)
 Number     Number       Type             X           Y           Z
 ---------------------------------------------------------------------
      1          8           0        0.000000    0.109279   -0.000000
      2          1           0        0.756707   -0.479852   -0.000000
      3          1           0       -0.756707   -0.394383    0.000000
 ---------------------------------------------------------------------

 SCF Done:  E(RB3LYP) =  -76.4048186002     A.U. after    9 cycles

 The electronic state is 1-A'.
 Alpha  occ. eigenvalues --  -19.12956  -1.00965  -0.53884  -0.36489  -0.29233
 Alpha virt. eigenvalues --    0.07191   0.16150   0.80357   0.88582   0.89166
 Alpha virt. eigenvalues --    0.89497   1.08032   1.18509   1.73435   1.73618
 Alpha virt. eigenvalues --    1.78025   2.32340   2.64608   3.57919

 Mulliken charges:
               1
     1  O   -0.787599
     2  H    0.391470
     3  H    0.396128
 Sum of Mulliken charges =   0.00000

 Dipole moment (field-independent basis, Debye):
    X=             -0.0441    Y=             -2.0058    Z=              0.0000  Tot=              2.0063
 Quadrupole moment (field-independent basis, Debye-Ang):
   XX=             -4.1360   YY=             -6.0823   ZZ=             -7.1326
   XY=             -0.1317   XZ=              0.0000   YZ=              0.0000

 Normal termination of Gaussian 16 at Wed Feb  8 14:50:51 2023.
