 Gaussian 16, Revision C.01,
 Gaussian 16:  ES64L-G16RevC.01  3-Jul-2019

 ----------------------------------------
 #P CCSD(T)/aug-cc-pVTZ scf(maxcycle=200)
 ----------------------------------------

 --------------
 Gaussian input
 --------------
 Symbolic Z-matrix:
 Charge =  0 Multiplicity = 1

                         Standard orientation:
 ---------------------------------------------------------------------
 Center     Atomic      Atomic             Coordinates (Angstroms)
 Number     Number       Type             X           Y           Z
 ---------------------------------------------------------------------
      1          8           0        0.000000    0.104169    0.000000
      2          1           0        0.801514   -0.508738    0.000000
      3          1           0       -0.801514   -0.324615   -0.000000
 ---------------------------------------------------------------------

 SCF Done:  E(RHF) =  -76.0535587637     A.U. after   10 cycles
 E2 =    -0.2679752240D+00 EUMP2 =    -0.76321533987689D+02
 CCSD(T)
 CCSD(T)= -0.76334903217D+02

 The electronic state is 1-A'.
 Alpha  occ. eigenvalues --  -20.56227  -1.34830  -0.73527  -0.56490  -0.50734
 Alpha virt. eigenvalues --    0.02985   0.04712   0.13697   0.15671   0.17125
 Alpha virt. eigenvalues --    0.18119   0.23007   0.24368   0.26175   0.31153
 Alpha virt. eigenvalues --    0.31793   0.36441   0.43135   0.47027   0.60629

 Mulliken charges:
               1
     1  O   -0.432866
     2  H    0.261770
     3  H    0.171097
 Sum of Mulliken charges =  -0.00000

 Dipole moment (field-independent basis, Debye):
    X=             -0.0302    Y=             -1.8160    Z=             -0.0000  Tot=              1.8163
 Quadrupole moment (field-independent basis, Debye-Ang):
   XX=             -3.8394   YY=             -6.5003   ZZ=             -7.5788
   XY=             -0.3538   XZ=              0.0000   YZ=             -0.0000

 3267669\CCSD=-76.326295\CCSD(T)=-76.3349032\RMSD=3.999e-09\PG=CS [SG(H
 Normal termination of Gaussian 16 at Wed Feb  8 13:55:49 2023.
