 Gaussian 16, Revision C.01,
 Gaussian 16:  ES64L-G16RevC.01  3-Jul-2019

 ----------------------------------------
 #P CCSD(T)/aug-cc-pVDZ scf(maxcycle=200)
 ----------------------------------------

 --------------
 Gaussian input
 --------------
 Symbolic Z-matrix:
 Charge =  0 Multiplicity = 1

                         Standard orientation:
 ---------------------------------------------------------------------
 Center     Atomic      Atomic             Coordinates (Angstroms)
 Number     Number       Type             X           Y           Z
 ---------------------------------------------------------------------
      1          8           0        0.000000    0.103931    0.000000
      2          1           0        0.775189   -0.370792    0.000000
      3          1           0       -0.775189   -0.460659    0.000000
 ---------------------------------------------------------------------

 SCF Done:  E(RHF) =  -76.0391455628     A.U. after   10 cycles
 E2 =    -0.2170008188D+00 EUMP2 =    -0.76256146381617D+02
 CCSD(T)
 CCSD(T)= -0.76269079310D+02

 The electronic state is 1-A'.
 Alpha  occ. eigenvalues --  -20.56950  -1.36389  -0.74785  -0.57425  -0.50927
 Alpha virt. eigenvalues --    0.03640   0.05736   0.17423   0.19448   0.22260
 Alpha virt. eigenvalues --    0.22829   0.30111   0.32426   0.38307   0.42365
 Alpha virt. eigenvalues --    0.44987   0.53468   0.65137   0.66121   0.84528

 Mulliken charges:
               1
     1  O   -0.264141
     2  H    0.102281
     3  H    0.161859
 Sum of Mulliken charges =  -0.00000

 Dipole moment (field-independent basis, Debye):
    X=              0.0186    Y=             -1.8480    Z=              0.0000  Tot=              1.8481
 Quadrupole moment (field-independent basis, Debye-Ang):
   XX=             -4.0111   YY=             -6.4714   ZZ=             -7.5481
   XY=              0.1681   XZ=              0.0000   YZ=              0.0000

 .264264\CCSD=-76.2640683\CCSD(T)=-76.2690793\RMSD=5.398e-09\PG=CS [SG(
 Normal termination of Gaussian 16 at Wed Feb  8 14:47:53 2023.
