 Gaussian 16, Revision C.01,
 Gaussian 16:  ES64L-G16RevC.01  3-Jul-2019

 ----------------------------------------
 #P CCSD(T)/aug-cc-pVTZ scf(maxcycle=200)
 ----------------------------------------

 --------------
 Gaussian input
 --------------
 Symbolic Z-matrix:
 Charge =  0 Multiplicity = 1

                         Standard orientation:
 ---------------------------------------------------------------------
 Center     Atomic      Atomic             Coordinates (Angstroms)
 Number     Number       Type             X           Y           Z
 ---------------------------------------------------------------------
      1          8           0        0.000000    0.129284    0.000000
      2          1           0        0.673660   -0.481014    0.000000
      3          1           0       -0.673660   -0.553258    0.000000
 ---------------------------------------------------------------------

 SCF Done:  E(RHF) =  -76.0539874275     A.U. after   10 cycles
 E2 =    -0.2677315455D+00 EUMP2 =    -0.76321718972994D+02
 CCSD(T)
 CCSD(T)= -0.76334945044D+02

 The electronic state is 1-A'.
 Alpha  occ. eigenvalues --  -20.56747  -1.37663  -0.70461  -0.61344  -0.51566
 Alpha virt. eigenvalues --    0.02881   0.04853   0.13391   0.15930   0.17748
 Alpha virt. eigenvalues --    0.18594   0.22611   0.24795   0.26984   0.29019
 Alpha virt. eigenvalues --    0.30483   0.37011   0.43873   0.47219   0.59375

 Mulliken charges:
               1
     1  O   -0.405635
     2  H    0.177502
     3  H    0.228133
 Sum of Mulliken charges =  -0.00000

 Dipole moment (field-independent basis, Debye):
    X=              0.0288    Y=             -2.1479    Z=              0.0000  Tot=              2.1481
 Quadrupole moment (field-independent basis, Debye-Ang):
   XX=             -4.8119   YY=             -5.8635   ZZ=             -7.4880
   XY=              0.0979   XZ=              0.0000   YZ=              0.0000

 3269065\CCSD=-76.3264404\CCSD(T)=-76.334945\RMSD=2.841e-09\PG=CS [SG(H
 Normal termination of Gaussian 16 at Wed Feb  8 13:49:09 2023.
