 Gaussian 16, Revision C.01,
 Gaussian 16:  ES64L-G16RevC.01  3-Jul-2019

 -----------------------------------
 #P HF/aug-cc-pVDZ scf(maxcycle=200)
 -----------------------------------

 --------------
 Gaussian input
 --------------
 Symbolic Z-matrix:
 Charge =  0 Multiplicity = 1

                         Standard orientation:
 ---------------------------------------------------------------------
 Center     Atomic      Atomic             Coordinates (Angstroms)
 Number     Number       Type             X           Y           Z
 ---------------------------------------------------------------------
      1          8           0        0.000000   -0.000000    0.109243
      2          1           0       -0.000000    0.848370   -0.436971
      3          1           0       -0.000000   -0.848370   -0.436971
 ---------------------------------------------------------------------

 SCF Done:  E(RHF) =  -76.0309729390     A.U. after   10 cycles

 The electronic state is 1-A1.
 Alpha  occ. eigenvalues --  -20.58032  -1.32523  -0.70815  -0.55690  -0.50210
 Alpha virt. eigenvalues --    0.03509   0.05672   0.17621   0.19829   0.21463
 Alpha virt. eigenvalues --    0.22935   0.28374   0.31113   0.37621   0.41679
 Alpha virt. eigenvalues --    0.44163   0.52072   0.63478   0.65097   0.81793

 Mulliken charges:
               1
     1  O   -0.436183
     2  H    0.218091
     3  H    0.218091
 Sum of Mulliken charges =  -0.00000

 Dipole moment (field-independent basis, Debye):
    X=             -0.0000    Y=             -0.0000    Z=             -1.8614  Tot=              1.8614
 Quadrupole moment (field-independent basis, Debye-Ang):
   XX=             -7.7332   YY=             -3.6749   ZZ=             -6.6129
   XY=              0.0000   XZ=              0.0000   YZ=              0.0000

 Normal termination of Gaussian 16 at Mon Feb 20 10:29:27 2023.
