 Gaussian 16, Revision C.01,
 Gaussian 16:  ES64L-G16RevC.01  3-Jul-2019

 ---------------------------------
 #P B3LYP/6-31g* scf(maxcycle=200)
 ---------------------------------

 --------------
 Gaussian input
 --------------
 Symbolic Z-matrix:
 Charge =  0 Multiplicity = 1

                         Standard orientation:
 ---------------------------------------------------------------------
 Center     Atomic      Atomic             Coordinates (Angstroms)
 Number     Number       Type             X           Y           Z
 ---------------------------------------------------------------------
      1          8           0       -0.000000   -0.000000    0.106265
      2          1           0       -0.000000    0.857774   -0.425059
      3          1           0       -0.000000   -0.857774   -0.425059
 ---------------------------------------------------------------------

 SCF Done:  E(RB3LYP) =  -76.4012522593     A.U. after    8 cycles

 The electronic state is 1-A1.
 Alpha  occ. eigenvalues --  -19.13711  -0.97135  -0.52062  -0.34356  -0.28354
 Alpha virt. eigenvalues --    0.04908   0.13814   0.77165   0.80396   0.89469
 Alpha virt. eigenvalues --    0.89603   1.07874   1.14463   1.74715   1.77412
 Alpha virt. eigenvalues --    1.80039   2.26639   2.48833   3.55024

 Mulliken charges:
               1
     1  O   -0.788326
     2  H    0.394163
     3  H    0.394163
 Sum of Mulliken charges =   0.00000

 Dipole moment (field-independent basis, Debye):
    X=             -0.0000    Y=              0.0000    Z=             -1.8947  Tot=              1.8947
 Quadrupole moment (field-independent basis, Debye-Ang):
   XX=             -7.2799   YY=             -3.6267   ZZ=             -6.3342
   XY=              0.0000   XZ=              0.0000   YZ=             -0.0000

 Normal termination of Gaussian 16 at Wed Feb  8 14:52:44 2023.
