 Gaussian 16, Revision C.01,
 Gaussian 16:  ES64L-G16RevC.01  3-Jul-2019

 ---------------------------------
 #P B3LYP/6-31g* scf(maxcycle=200)
 ---------------------------------

 --------------
 Gaussian input
 --------------
 Symbolic Z-matrix:
 Charge =  0 Multiplicity = 1

                         Standard orientation:
 ---------------------------------------------------------------------
 Center     Atomic      Atomic             Coordinates (Angstroms)
 Number     Number       Type             X           Y           Z
 ---------------------------------------------------------------------
      1          8           0        0.000000    0.092865    0.000000
      2          1           0        0.809229   -0.321174    0.000000
      3          1           0       -0.809229   -0.421750    0.000000
 ---------------------------------------------------------------------

 SCF Done:  E(RB3LYP) =  -76.3993634765     A.U. after    9 cycles

 The electronic state is 1-A'.
 Alpha  occ. eigenvalues --  -19.12273  -0.99920  -0.55700  -0.34113  -0.28812
 Alpha virt. eigenvalues --    0.07154   0.16365   0.80880   0.87957   0.89464
 Alpha virt. eigenvalues --    0.89500   1.09261   1.16260   1.72508   1.77165
 Alpha virt. eigenvalues --    1.79446   2.37207   2.59759   3.59850

 Mulliken charges:
               1
     1  O   -0.809628
     2  H    0.405643
     3  H    0.403985
 Sum of Mulliken charges =  -0.00000

 Dipole moment (field-independent basis, Debye):
    X=              0.0369    Y=             -1.7954    Z=              0.0000  Tot=              1.7958
 Quadrupole moment (field-independent basis, Debye-Ang):
   XX=             -3.6451   YY=             -6.3546   ZZ=             -7.1304
   XY=              0.1846   XZ=              0.0000   YZ=              0.0000

 Normal termination of Gaussian 16 at Wed Feb  8 14:50:19 2023.
