 Gaussian 16, Revision C.01,
 Gaussian 16:  ES64L-G16RevC.01  3-Jul-2019

 ----------------------------------------
 #P PBE1PBE/aug-cc-pVDZ scf(maxcycle=200)
 ----------------------------------------

 --------------
 Gaussian input
 --------------
 Symbolic Z-matrix:
 Charge =  0 Multiplicity = 1

                         Standard orientation:
 ---------------------------------------------------------------------
 Center     Atomic      Atomic             Coordinates (Angstroms)
 Number     Number       Type             X           Y           Z
 ---------------------------------------------------------------------
      1          8           0        0.000000    0.139927    0.000000
      2          1           0        0.654215   -0.628242    0.000000
      3          1           0       -0.654215   -0.491170   -0.000000
 ---------------------------------------------------------------------

 SCF Done:  E(RPBE1PBE) =  -76.3460499908     A.U. after    8 cycles

 The electronic state is 1-A'.
 Alpha  occ. eigenvalues --  -19.23630  -1.06507  -0.51508  -0.44614  -0.33697
 Alpha virt. eigenvalues --   -0.01586   0.03445   0.10693   0.13309   0.14405
 Alpha virt. eigenvalues --    0.16983   0.18517   0.26468   0.27796   0.29870
 Alpha virt. eigenvalues --    0.31433   0.47048   0.50008   0.55271   0.60918

 Mulliken charges:
               1
     1  O   -0.214667
     2  H    0.149838
     3  H    0.064829
 Sum of Mulliken charges =  -0.00000

 Dipole moment (field-independent basis, Debye):
    X=             -0.0641    Y=             -2.1084    Z=             -0.0000  Tot=              2.1094
 Quadrupole moment (field-independent basis, Debye-Ang):
   XX=             -5.2369   YY=             -5.8805   ZZ=             -7.7109
   XY=             -0.1693   XZ=              0.0000   YZ=              0.0000

 Normal termination of Gaussian 16 at Wed Mar 29 21:52:51 2023.
