 Gaussian 16, Revision C.01,
 Gaussian 16:  ES64L-G16RevC.01  3-Jul-2019

 ---------------------------------
 #P B3LYP/6-31g* scf(maxcycle=200)
 ---------------------------------

 --------------
 Gaussian input
 --------------
 Symbolic Z-matrix:
 Charge =  0 Multiplicity = 1

                         Standard orientation:
 ---------------------------------------------------------------------
 Center     Atomic      Atomic             Coordinates (Angstroms)
 Number     Number       Type             X           Y           Z
 ---------------------------------------------------------------------
      1          8           0       -0.000000    0.000000    0.123464
      2          1           0        0.000000    0.667230   -0.493857
      3          1           0       -0.000000   -0.667230   -0.493857
 ---------------------------------------------------------------------

 SCF Done:  E(RB3LYP) =  -76.3977854402     A.U. after    9 cycles

 The electronic state is 1-A1.
 Alpha  occ. eigenvalues --  -19.13183  -1.03583  -0.52188  -0.39552  -0.29878
 Alpha virt. eigenvalues --    0.07446   0.16786   0.76734   0.88047   0.88841
 Alpha virt. eigenvalues --    0.97747   1.07942   1.23526   1.68901   1.74133
 Alpha virt. eigenvalues --    1.75828   2.37606   2.64450   3.56317

 Mulliken charges:
               1
     1  O   -0.767385
     2  H    0.383693
     3  H    0.383693
 Sum of Mulliken charges =   0.00000

 Dipole moment (field-independent basis, Debye):
    X=             -0.0000    Y=             -0.0000    Z=             -2.2056  Tot=              2.2056
 Quadrupole moment (field-independent basis, Debye-Ang):
   XX=             -7.0882   YY=             -4.7457   ZZ=             -5.7389
   XY=              0.0000   XZ=              0.0000   YZ=              0.0000

 Normal termination of Gaussian 16 at Wed Feb  8 14:49:28 2023.
