 Gaussian 16, Revision C.01,
 Gaussian 16:  ES64L-G16RevC.01  3-Jul-2019

 ------------------------------------
 #P wB97XD/6-311g** scf(maxcycle=200)
 ------------------------------------

 --------------
 Gaussian input
 --------------
 Symbolic Z-matrix:
 Charge =  0 Multiplicity = 1

                         Standard orientation:
 ---------------------------------------------------------------------
 Center     Atomic      Atomic             Coordinates (Angstroms)
 Number     Number       Type             X           Y           Z
 ---------------------------------------------------------------------
      1          8           0        0.000000   -0.000000    0.121116
      2          1           0        0.000000    0.677902   -0.484466
      3          1           0       -0.000000   -0.677902   -0.484466
 ---------------------------------------------------------------------

 SCF Done:  E(RwB97XD) =  -76.4158161064     A.U. after   11 cycles

 The electronic state is 1-A1.
 Alpha  occ. eigenvalues --  -19.22097  -1.13367  -0.61393  -0.48340  -0.39281
 Alpha virt. eigenvalues --    0.12622   0.20265   0.47840   0.55872   0.85001
 Alpha virt. eigenvalues --    0.85296   0.96385   1.15664   1.21519   1.39217
 Alpha virt. eigenvalues --    1.50885   1.84592   2.04757   2.21903   2.41307

 Mulliken charges:
               1
     1  O   -0.454109
     2  H    0.227054
     3  H    0.227054
 Sum of Mulliken charges =  -0.00000

 Dipole moment (field-independent basis, Debye):
    X=             -0.0000    Y=             -0.0000    Z=             -2.1641  Tot=              2.1641
 Quadrupole moment (field-independent basis, Debye-Ang):
   XX=             -7.0529   YY=             -4.6270   ZZ=             -5.8056
   XY=              0.0000   XZ=              0.0000   YZ=              0.0000

 Normal termination of Gaussian 16 at Wed Feb  8 14:40:05 2023.
