 Gaussian 16, Revision C.01,
 Gaussian 16:  ES64L-G16RevC.01  3-Jul-2019

 ------------------------------------
 #P wB97XD/6-311g** scf(maxcycle=200)
 ------------------------------------

 --------------
 Gaussian input
 --------------
 Symbolic Z-matrix:
 Charge =  0 Multiplicity = 1

                         Standard orientation:
 ---------------------------------------------------------------------
 Center     Atomic      Atomic             Coordinates (Angstroms)
 Number     Number       Type             X           Y           Z
 ---------------------------------------------------------------------
      1          8           0        0.000000    0.000000    0.139759
      2          1           0       -0.000000    0.656786   -0.559036
      3          1           0       -0.000000   -0.656786   -0.559036
 ---------------------------------------------------------------------

 SCF Done:  E(RwB97XD) =  -76.4150149919     A.U. after   12 cycles

 The electronic state is 1-A1.
 Alpha  occ. eigenvalues --  -19.23447  -1.11914  -0.57421  -0.50005  -0.39150
 Alpha virt. eigenvalues --    0.11270   0.19272   0.44352   0.53322   0.85244
 Alpha virt. eigenvalues --    0.85984   0.96082   1.12864   1.18136   1.42263
 Alpha virt. eigenvalues --    1.43612   1.87255   1.96771   2.17725   2.41998

 Mulliken charges:
               1
     1  O   -0.426732
     2  H    0.213366
     3  H    0.213366
 Sum of Mulliken charges =  -0.00000

 Dipole moment (field-independent basis, Debye):
    X=             -0.0000    Y=             -0.0000    Z=             -2.3024  Tot=              2.3024
 Quadrupole moment (field-independent basis, Debye-Ang):
   XX=             -7.1569   YY=             -5.0018   ZZ=             -5.5479
   XY=              0.0000   XZ=              0.0000   YZ=             -0.0000

 Normal termination of Gaussian 16 at Wed Feb  8 14:41:19 2023.
