 Gaussian 16, Revision C.01,
 Gaussian 16:  ES64L-G16RevC.01  3-Jul-2019

 ----------------------------------------
 #P PBE1PBE/aug-cc-pVDZ scf(maxcycle=200)
 ----------------------------------------

 --------------
 Gaussian input
 --------------
 Symbolic Z-matrix:
 Charge =  0 Multiplicity = 1

                         Standard orientation:
 ---------------------------------------------------------------------
 Center     Atomic      Atomic             Coordinates (Angstroms)
 Number     Number       Type             X           Y           Z
 ---------------------------------------------------------------------
      1          8           0        0.000000    0.122949   -0.000000
      2          1           0        0.733611   -0.569796   -0.000000
      3          1           0       -0.733611   -0.413797    0.000000
 ---------------------------------------------------------------------

 SCF Done:  E(RPBE1PBE) =  -76.3543857947     A.U. after    9 cycles

 The electronic state is 1-A'.
 Alpha  occ. eigenvalues --  -19.23153  -1.05320  -0.54421  -0.41872  -0.33406
 Alpha virt. eigenvalues --   -0.01317   0.03301   0.11059   0.13201   0.14189
 Alpha virt. eigenvalues --    0.16807   0.18950   0.24522   0.29273   0.29838
 Alpha virt. eigenvalues --    0.32970   0.45763   0.50605   0.54856   0.63387

 Mulliken charges:
               1
     1  O   -0.214426
     2  H    0.157257
     3  H    0.057169
 Sum of Mulliken charges =   0.00000

 Dipole moment (field-independent basis, Debye):
    X=             -0.0518    Y=             -1.9270    Z=             -0.0000  Tot=              1.9277
 Quadrupole moment (field-independent basis, Debye-Ang):
   XX=             -4.6553   YY=             -6.2838   ZZ=             -7.7365
   XY=             -0.2431   XZ=             -0.0000   YZ=              0.0000

 Normal termination of Gaussian 16 at Wed Mar 29 21:53:03 2023.
