 Gaussian 16, Revision C.01,
 Gaussian 16:  ES64L-G16RevC.01  3-Jul-2019

 -----------------------------------
 #P HF/aug-cc-pVDZ scf(maxcycle=200)
 -----------------------------------

 --------------
 Gaussian input
 --------------
 Symbolic Z-matrix:
 Charge =  0 Multiplicity = 1

                         Standard orientation:
 ---------------------------------------------------------------------
 Center     Atomic      Atomic             Coordinates (Angstroms)
 Number     Number       Type             X           Y           Z
 ---------------------------------------------------------------------
      1          8           0        0.000000    0.097826    0.000000
      2          1           0        0.852703   -0.441598    0.000000
      3          1           0       -0.852703   -0.341012   -0.000000
 ---------------------------------------------------------------------

 SCF Done:  E(RHF) =  -76.0315456396     A.U. after   10 cycles

 The electronic state is 1-A'.
 Alpha  occ. eigenvalues --  -20.57305  -1.33351  -0.73122  -0.55014  -0.50207
 Alpha virt. eigenvalues --    0.03589   0.05637   0.17648   0.19642   0.21461
 Alpha virt. eigenvalues --    0.22679   0.29408   0.30791   0.37492   0.43339
 Alpha virt. eigenvalues --    0.45531   0.51782   0.63885   0.65545   0.84318

 Mulliken charges:
               1
     1  O   -0.404861
     2  H    0.232134
     3  H    0.172727
 Sum of Mulliken charges =   0.00000

 Dipole moment (field-independent basis, Debye):
    X=             -0.0110    Y=             -1.7322    Z=              0.0000  Tot=              1.7322
 Quadrupole moment (field-independent basis, Debye-Ang):
   XX=             -3.5011   YY=             -6.7607   ZZ=             -7.6898
   XY=             -0.2143   XZ=              0.0000   YZ=             -0.0000

 Normal termination of Gaussian 16 at Mon Feb 20 10:17:08 2023.
