 Gaussian 16, Revision C.01,
 Gaussian 16:  ES64L-G16RevC.01  3-Jul-2019

 ----------------------------------------
 #P CCSD(T)/aug-cc-pVDZ scf(maxcycle=200)
 ----------------------------------------

 --------------
 Gaussian input
 --------------
 Symbolic Z-matrix:
 Charge =  0 Multiplicity = 1

                         Standard orientation:
 ---------------------------------------------------------------------
 Center     Atomic      Atomic             Coordinates (Angstroms)
 Number     Number       Type             X           Y           Z
 ---------------------------------------------------------------------
      1          8           0        0.000000    0.106621    0.000000
      2          1           0        0.766067   -0.382686    0.000000
      3          1           0       -0.766067   -0.470286    0.000000
 ---------------------------------------------------------------------

 SCF Done:  E(RHF) =  -76.0396677841     A.U. after   10 cycles
 E2 =    -0.2170489849D+00 EUMP2 =    -0.76256716768967D+02
 CCSD(T)
 CCSD(T)= -0.76269657400D+02

 The electronic state is 1-A'.
 Alpha  occ. eigenvalues --  -20.57044  -1.36531  -0.74413  -0.57815  -0.50984
 Alpha virt. eigenvalues --    0.03626   0.05753   0.17400   0.19472   0.22301
 Alpha virt. eigenvalues --    0.22891   0.29996   0.32692   0.38412   0.41955
 Alpha virt. eigenvalues --    0.44673   0.53676   0.65143   0.66115   0.83980

 Mulliken charges:
               1
     1  O   -0.258327
     2  H    0.099730
     3  H    0.158597
 Sum of Mulliken charges =  -0.00000

 Dipole moment (field-independent basis, Debye):
    X=              0.0199    Y=             -1.8824    Z=              0.0000  Tot=              1.8825
 Quadrupole moment (field-independent basis, Debye-Ang):
   XX=             -4.0926   YY=             -6.4140   ZZ=             -7.5439
   XY=              0.1597   XZ=              0.0000   YZ=              0.0000

 .2648351\CCSD=-76.264641\CCSD(T)=-76.2696574\RMSD=5.601e-09\PG=CS [SG(
 Normal termination of Gaussian 16 at Wed Feb  8 14:47:33 2023.
