 Gaussian 16, Revision C.01,
 Gaussian 16:  ES64L-G16RevC.01  3-Jul-2019

 ----------------------------------------
 #P PBE1PBE/aug-cc-pVDZ scf(maxcycle=200)
 ----------------------------------------

 --------------
 Gaussian input
 --------------
 Symbolic Z-matrix:
 Charge =  0 Multiplicity = 1

                         Standard orientation:
 ---------------------------------------------------------------------
 Center     Atomic      Atomic             Coordinates (Angstroms)
 Number     Number       Type             X           Y           Z
 ---------------------------------------------------------------------
      1          8           0        0.000000    0.138657    0.000000
      2          1           0        0.697840   -0.519143    0.000000
      3          1           0       -0.697840   -0.590109    0.000000
 ---------------------------------------------------------------------

 SCF Done:  E(RPBE1PBE) =  -76.3534895301     A.U. after    9 cycles

 The electronic state is 1-A'.
 Alpha  occ. eigenvalues --  -19.23943  -1.04830  -0.51512  -0.43604  -0.33409
 Alpha virt. eigenvalues --   -0.01638   0.03287   0.10793   0.13334   0.14386
 Alpha virt. eigenvalues --    0.15992   0.18453   0.25610   0.27763   0.29725
 Alpha virt. eigenvalues --    0.31207   0.46281   0.50092   0.53839   0.61115

 Mulliken charges:
               1
     1  O   -0.263418
     2  H    0.109410
     3  H    0.154008
 Sum of Mulliken charges =   0.00000

 Dipole moment (field-independent basis, Debye):
    X=              0.0303    Y=             -2.0728    Z=              0.0000  Tot=              2.0730
 Quadrupole moment (field-independent basis, Debye-Ang):
   XX=             -5.0371   YY=             -6.0123   ZZ=             -7.7801
   XY=              0.0956   XZ=              0.0000   YZ=              0.0000

 Normal termination of Gaussian 16 at Wed Mar 29 21:52:35 2023.
