 Gaussian 16, Revision C.01,
 Gaussian 16:  ES64L-G16RevC.01  3-Jul-2019

 ---------------------------------
 #P B3LYP/6-31g* scf(maxcycle=200)
 ---------------------------------

 --------------
 Gaussian input
 --------------
 Symbolic Z-matrix:
 Charge =  0 Multiplicity = 1

                         Standard orientation:
 ---------------------------------------------------------------------
 Center     Atomic      Atomic             Coordinates (Angstroms)
 Number     Number       Type             X           Y           Z
 ---------------------------------------------------------------------
      1          8           0        0.000000    0.000000    0.113855
      2          1           0       -0.000000    0.708667   -0.455419
      3          1           0       -0.000000   -0.708667   -0.455419
 ---------------------------------------------------------------------

 SCF Done:  E(RB3LYP) =  -76.4012852192     A.U. after    9 cycles

 The electronic state is 1-A1.
 Alpha  occ. eigenvalues --  -19.12825  -1.02699  -0.53830  -0.37902  -0.29637
 Alpha virt. eigenvalues --    0.07784   0.16849   0.79528   0.88418   0.89005
 Alpha virt. eigenvalues --    0.94912   1.08350   1.20711   1.71108   1.73380
 Alpha virt. eigenvalues --    1.76854   2.35503   2.67908   3.58066

 Mulliken charges:
               1
     1  O   -0.779636
     2  H    0.389818
     3  H    0.389818
 Sum of Mulliken charges =  -0.00000

 Dipole moment (field-independent basis, Debye):
    X=             -0.0000    Y=              0.0000    Z=             -2.0883  Tot=              2.0883
 Quadrupole moment (field-independent basis, Debye-Ang):
   XX=             -7.0843   YY=             -4.4162   ZZ=             -5.9323
   XY=              0.0000   XZ=              0.0000   YZ=             -0.0000

 Normal termination of Gaussian 16 at Wed Feb  8 14:49:31 2023.
