 Gaussian 16, Revision C.01,
 Gaussian 16:  ES64L-G16RevC.01  3-Jul-2019

 ------------------------------------
 #P wB97XD/6-311g** scf(maxcycle=200)
 ------------------------------------

 --------------
 Gaussian input
 --------------
 Symbolic Z-matrix:
 Charge =  0 Multiplicity = 1

                         Standard orientation:
 ---------------------------------------------------------------------
 Center     Atomic      Atomic             Coordinates (Angstroms)
 Number     Number       Type             X           Y           Z
 ---------------------------------------------------------------------
      1          8           0       -0.000000   -0.000000    0.149435
      2          1           0        0.000000    0.678092   -0.597741
      3          1           0       -0.000000   -0.678092   -0.597741
 ---------------------------------------------------------------------

 SCF Done:  E(RwB97XD) =  -76.4105572712     A.U. after   12 cycles

 The electronic state is 1-A1.
 Alpha  occ. eigenvalues --  -19.24382  -1.09845  -0.55434  -0.50010  -0.38857
 Alpha virt. eigenvalues --    0.10174   0.17978   0.42104   0.50249   0.85182
 Alpha virt. eigenvalues --    0.86565   0.95511   1.11365   1.19183   1.41882
 Alpha virt. eigenvalues --    1.42238   1.82776   1.92856   2.10264   2.41542

 Mulliken charges:
               1
     1  O   -0.426020
     2  H    0.213010
     3  H    0.213010
 Sum of Mulliken charges =  -0.00000

 Dipole moment (field-independent basis, Debye):
    X=             -0.0000    Y=             -0.0000    Z=             -2.3502  Tot=              2.3502
 Quadrupole moment (field-independent basis, Debye-Ang):
   XX=             -7.2614   YY=             -5.0669   ZZ=             -5.4764
   XY=              0.0000   XZ=              0.0000   YZ=              0.0000

 Normal termination of Gaussian 16 at Wed Feb  8 14:42:59 2023.
