 Gaussian 16, Revision C.01,
 Gaussian 16:  ES64L-G16RevC.01  3-Jul-2019

 ----------------------------------------
 #P CCSD(T)/aug-cc-pVTZ scf(maxcycle=200)
 ----------------------------------------

 --------------
 Gaussian input
 --------------
 Symbolic Z-matrix:
 Charge =  0 Multiplicity = 1

                         Standard orientation:
 ---------------------------------------------------------------------
 Center     Atomic      Atomic             Coordinates (Angstroms)
 Number     Number       Type             X           Y           Z
 ---------------------------------------------------------------------
      1          8           0       -0.000000    0.000000    0.120117
      2          1           0       -0.000000    0.747647   -0.480470
      3          1           0       -0.000000   -0.747647   -0.480470
 ---------------------------------------------------------------------

 SCF Done:  E(RHF) =  -76.0602490073     A.U. after   10 cycles
 E2 =    -0.2686569708D+00 EUMP2 =    -0.76328905978064D+02
 CCSD(T)
 CCSD(T)= -0.76342229071D+02

 The electronic state is 1-A1.
 Alpha  occ. eigenvalues --  -20.56840  -1.35419  -0.71282  -0.58866  -0.51082
 Alpha virt. eigenvalues --    0.02929   0.04781   0.13565   0.15894   0.17559
 Alpha virt. eigenvalues --    0.18349   0.22681   0.24526   0.26603   0.29842
 Alpha virt. eigenvalues --    0.30919   0.36618   0.43775   0.46642   0.59828

 Mulliken charges:
               1
     1  O   -0.441306
     2  H    0.220653
     3  H    0.220653
 Sum of Mulliken charges =  -0.00000

 Dipole moment (field-independent basis, Debye):
    X=             -0.0000    Y=             -0.0000    Z=             -2.0177  Tot=              2.0177
 Quadrupole moment (field-independent basis, Debye-Ang):
   XX=             -7.5588   YY=             -4.3324   ZZ=             -6.1821
   XY=              0.0000   XZ=              0.0000   YZ=             -0.0000

 340541\CCSD=-76.3335724\CCSD(T)=-76.3422291\RMSD=3.919e-09\PG=C02V [C2
 Normal termination of Gaussian 16 at Wed Feb  8 13:52:41 2023.
