 Gaussian 16, Revision C.01,
 Gaussian 16:  ES64L-G16RevC.01  3-Jul-2019

 ----------------------------------------
 #P PBE1PBE/aug-cc-pVDZ scf(maxcycle=200)
 ----------------------------------------

 --------------
 Gaussian input
 --------------
 Symbolic Z-matrix:
 Charge =  0 Multiplicity = 1

                         Standard orientation:
 ---------------------------------------------------------------------
 Center     Atomic      Atomic             Coordinates (Angstroms)
 Number     Number       Type             X           Y           Z
 ---------------------------------------------------------------------
      1          8           0       -0.000000   -0.000000    0.130255
      2          1           0        0.000000    0.703931   -0.521022
      3          1           0       -0.000000   -0.703931   -0.521022
 ---------------------------------------------------------------------

 SCF Done:  E(RPBE1PBE) =  -76.3572536565     A.U. after    8 cycles

 The electronic state is 1-A1.
 Alpha  occ. eigenvalues --  -19.23428  -1.05589  -0.53213  -0.43056  -0.33518
 Alpha virt. eigenvalues --   -0.01340   0.03368   0.11066   0.13263   0.14691
 Alpha virt. eigenvalues --    0.16641   0.18646   0.25313   0.28736   0.29757
 Alpha virt. eigenvalues --    0.32000   0.46316   0.51411   0.54373   0.61857

 Mulliken charges:
               1
     1  O   -0.213203
     2  H    0.106602
     3  H    0.106602
 Sum of Mulliken charges =  -0.00000

 Dipole moment (field-independent basis, Debye):
    X=             -0.0000    Y=              0.0000    Z=             -2.0067  Tot=              2.0067
 Quadrupole moment (field-independent basis, Debye-Ang):
   XX=             -7.7279   YY=             -4.8910   ZZ=             -6.1351
   XY=              0.0000   XZ=              0.0000   YZ=              0.0000

 Normal termination of Gaussian 16 at Mon Mar 20 17:59:03 2023.
