 Gaussian 16, Revision C.01,
 Gaussian 16:  ES64L-G16RevC.01  3-Jul-2019

 ------------------------------
 #P HF/6-31g* scf(maxcycle=200)
 ------------------------------

 --------------
 Gaussian input
 --------------
 Symbolic Z-matrix:
 Charge =  0 Multiplicity = 1

                         Standard orientation:
 ---------------------------------------------------------------------
 Center     Atomic      Atomic             Coordinates (Angstroms)
 Number     Number       Type             X           Y           Z
 ---------------------------------------------------------------------
      1          8           0        0.000000   -0.000000    0.147046
      2          1           0        0.000000    0.691029   -0.588182
      3          1           0       -0.000000   -0.691029   -0.588182
 ---------------------------------------------------------------------

 SCF Done:  E(RHF) =  -75.9945685348     A.U. after   10 cycles

 The electronic state is 1-A1.
 Alpha  occ. eigenvalues --  -20.57993  -1.33220  -0.64558  -0.59855  -0.50200
 Alpha virt. eigenvalues --    0.19428   0.28504   0.94685   1.11888   1.15292
 Alpha virt. eigenvalues --    1.16265   1.35025   1.50245   2.00265   2.05606
 Alpha virt. eigenvalues --    2.05837   2.61722   2.77918   3.90767

 Mulliken charges:
               1
     1  O   -0.825716
     2  H    0.412858
     3  H    0.412858
 Sum of Mulliken charges =  -0.00000

 Dipole moment (field-independent basis, Debye):
    X=             -0.0000    Y=              0.0000    Z=             -2.5577  Tot=              2.5577
 Quadrupole moment (field-independent basis, Debye-Ang):
   XX=             -7.3372   YY=             -4.9475   ZZ=             -5.4556
   XY=              0.0000   XZ=              0.0000   YZ=             -0.0000

 Normal termination of Gaussian 16 at Wed Feb  8 15:07:24 2023.
