 Gaussian 16, Revision C.01,
 Gaussian 16:  ES64L-G16RevC.01  3-Jul-2019

 ---------------------------------
 #P B3LYP/6-31g* scf(maxcycle=200)
 ---------------------------------

 --------------
 Gaussian input
 --------------
 Symbolic Z-matrix:
 Charge =  0 Multiplicity = 1

                         Standard orientation:
 ---------------------------------------------------------------------
 Center     Atomic      Atomic             Coordinates (Angstroms)
 Number     Number       Type             X           Y           Z
 ---------------------------------------------------------------------
      1          8           0        0.000000   -0.000000    0.109243
      2          1           0       -0.000000    0.848370   -0.436971
      3          1           0       -0.000000   -0.848370   -0.436971
 ---------------------------------------------------------------------

 SCF Done:  E(RB3LYP) =  -76.4025311728     A.U. after    8 cycles

 The electronic state is 1-A1.
 Alpha  occ. eigenvalues --  -19.13844  -0.97290  -0.51808  -0.34760  -0.28437
 Alpha virt. eigenvalues --    0.04971   0.13737   0.78032   0.79584   0.89408
 Alpha virt. eigenvalues --    0.89539   1.07465   1.14992   1.74829   1.76873
 Alpha virt. eigenvalues --    1.79813   2.25786   2.49682   3.54773

 Mulliken charges:
               1
     1  O   -0.783883
     2  H    0.391942
     3  H    0.391942
 Sum of Mulliken charges =  -0.00000

 Dipole moment (field-independent basis, Debye):
    X=             -0.0000    Y=             -0.0000    Z=             -1.9296  Tot=              1.9296
 Quadrupole moment (field-independent basis, Debye-Ang):
   XX=             -7.2800   YY=             -3.7205   ZZ=             -6.2842
   XY=              0.0000   XZ=              0.0000   YZ=              0.0000

 Normal termination of Gaussian 16 at Wed Feb  8 14:52:46 2023.
