 Gaussian 16, Revision C.01,
 Gaussian 16:  ES64L-G16RevC.01  3-Jul-2019

 ----------------------------------------
 #P CCSD(T)/aug-cc-pVTZ scf(maxcycle=200)
 ----------------------------------------

 --------------
 Gaussian input
 --------------
 Symbolic Z-matrix:
 Charge =  0 Multiplicity = 1

                         Standard orientation:
 ---------------------------------------------------------------------
 Center     Atomic      Atomic             Coordinates (Angstroms)
 Number     Number       Type             X           Y           Z
 ---------------------------------------------------------------------
      1          8           0       -0.000000   -0.000000    0.134441
      2          1           0       -0.000000    0.752479   -0.537762
      3          1           0       -0.000000   -0.752479   -0.537762
 ---------------------------------------------------------------------

 SCF Done:  E(RHF) =  -76.0510038186     A.U. after   10 cycles
 E2 =    -0.2734290914D+00 EUMP2 =    -0.76324432909985D+02
 CCSD(T)
 CCSD(T)= -0.76337749394D+02

 The electronic state is 1-A1.
 Alpha  occ. eigenvalues --  -20.57962  -1.33391  -0.67557  -0.59047  -0.50889
 Alpha virt. eigenvalues --    0.02817   0.04799   0.13422   0.16213   0.17497
 Alpha virt. eigenvalues --    0.18487   0.21955   0.24387   0.26820   0.29011
 Alpha virt. eigenvalues --    0.30451   0.36502   0.42702   0.45420   0.59254

 Mulliken charges:
               1
     1  O   -0.506958
     2  H    0.253479
     3  H    0.253479
 Sum of Mulliken charges =   0.00000

 Dipole moment (field-independent basis, Debye):
    X=             -0.0000    Y=             -0.0000    Z=             -2.1559  Tot=              2.1559
 Quadrupole moment (field-independent basis, Debye-Ang):
   XX=             -7.6621   YY=             -4.5148   ZZ=             -6.0047
   XY=              0.0000   XZ=              0.0000   YZ=              0.0000

 3290567\CCSD=-76.3285077\CCSD(T)=-76.3377494\RMSD=6.061e-09\PG=C02V [C
 Normal termination of Gaussian 16 at Wed Feb  8 13:57:40 2023.
