 Gaussian 16, Revision C.01,
 Gaussian 16:  ES64L-G16RevC.01  3-Jul-2019

 ------------------------------
 #P HF/6-31g* scf(maxcycle=200)
 ------------------------------

 --------------
 Gaussian input
 --------------
 Symbolic Z-matrix:
 Charge =  0 Multiplicity = 1

                         Standard orientation:
 ---------------------------------------------------------------------
 Center     Atomic      Atomic             Coordinates (Angstroms)
 Number     Number       Type             X           Y           Z
 ---------------------------------------------------------------------
      1          8           0        0.000000    0.103719    0.000000
      2          1           0        0.835278   -0.462312   -0.000000
      3          1           0       -0.835278   -0.367440    0.000000
 ---------------------------------------------------------------------

 SCF Done:  E(RHF) =  -76.0030468267     A.U. after   10 cycles

 The electronic state is 1-A'.
 Alpha  occ. eigenvalues --  -20.55755  -1.31936  -0.71136  -0.54183  -0.49065
 Alpha virt. eigenvalues --    0.20342   0.29888   1.04264   1.08603   1.15892
 Alpha virt. eigenvalues --    1.17185   1.38638   1.39508   2.03191   2.06020
 Alpha virt. eigenvalues --    2.08610   2.62006   2.88329   3.97640

 Mulliken charges:
               1
     1  O   -0.889097
     2  H    0.442654
     3  H    0.446443
 Sum of Mulliken charges =  -0.00000

 Dipole moment (field-independent basis, Debye):
    X=             -0.0339    Y=             -2.0249    Z=             -0.0000  Tot=              2.0252
 Quadrupole moment (field-independent basis, Debye-Ang):
   XX=             -3.5123   YY=             -6.3003   ZZ=             -7.2827
   XY=             -0.1827   XZ=             -0.0000   YZ=             -0.0000

 Normal termination of Gaussian 16 at Wed Feb  8 15:07:22 2023.
