 Gaussian 16, Revision C.01,
 Gaussian 16:  ES64L-G16RevC.01  3-Jul-2019

 ------------------------------
 #P HF/6-31g* scf(maxcycle=200)
 ------------------------------

 --------------
 Gaussian input
 --------------
 Symbolic Z-matrix:
 Charge =  0 Multiplicity = 1

                         Standard orientation:
 ---------------------------------------------------------------------
 Center     Atomic      Atomic             Coordinates (Angstroms)
 Number     Number       Type             X           Y           Z
 ---------------------------------------------------------------------
      1          8           0        0.000000    0.095676    0.000000
      2          1           0        0.801093   -0.333894    0.000000
      3          1           0       -0.801093   -0.431515    0.000000
 ---------------------------------------------------------------------

 SCF Done:  E(RHF) =  -76.0046097430     A.U. after   10 cycles

 The electronic state is 1-A'.
 Alpha  occ. eigenvalues --  -20.54730  -1.34288  -0.74425  -0.54659  -0.49378
 Alpha virt. eigenvalues --    0.21596   0.31050   1.07769   1.12282   1.16747
 Alpha virt. eigenvalues --    1.17174   1.39583   1.40910   2.01673   2.05536
 Alpha virt. eigenvalues --    2.08022   2.69412   2.95789   4.00829

 Mulliken charges:
               1
     1  O   -0.895273
     2  H    0.446992
     3  H    0.448280
 Sum of Mulliken charges =   0.00000

 Dipole moment (field-independent basis, Debye):
    X=              0.0295    Y=             -1.9435    Z=              0.0000  Tot=              1.9437
 Quadrupole moment (field-independent basis, Debye-Ang):
   XX=             -3.5785   YY=             -6.3096   ZZ=             -7.1783
   XY=              0.1882   XZ=              0.0000   YZ=              0.0000

 Normal termination of Gaussian 16 at Wed Feb  8 15:05:19 2023.
