 Gaussian 16, Revision C.01,
 Gaussian 16:  ES64L-G16RevC.01  3-Jul-2019

 -----------------------------------
 #P HF/aug-cc-pVDZ scf(maxcycle=200)
 -----------------------------------

 --------------
 Gaussian input
 --------------
 Symbolic Z-matrix:
 Charge =  0 Multiplicity = 1

                         Standard orientation:
 ---------------------------------------------------------------------
 Center     Atomic      Atomic             Coordinates (Angstroms)
 Number     Number       Type             X           Y           Z
 ---------------------------------------------------------------------
      1          8           0        0.000000    0.000000    0.122709
      2          1           0       -0.000000    0.737052   -0.490835
      3          1           0       -0.000000   -0.737052   -0.490835
 ---------------------------------------------------------------------

 SCF Done:  E(RHF) =  -76.0406807401     A.U. after   10 cycles

 The electronic state is 1-A1.
 Alpha  occ. eigenvalues --  -20.57934  -1.35873  -0.71014  -0.59338  -0.51045
 Alpha virt. eigenvalues --    0.03505   0.05828   0.17350   0.19724   0.22300
 Alpha virt. eigenvalues --    0.23273   0.28813   0.33756   0.38800   0.39611
 Alpha virt. eigenvalues --    0.42763   0.54295   0.64688   0.65902   0.80103

 Mulliken charges:
               1
     1  O   -0.294721
     2  H    0.147361
     3  H    0.147361
 Sum of Mulliken charges =   0.00000

 Dipole moment (field-independent basis, Debye):
    X=             -0.0000    Y=             -0.0000    Z=             -2.0650  Tot=              2.0650
 Quadrupole moment (field-independent basis, Debye-Ang):
   XX=             -7.5858   YY=             -4.4540   ZZ=             -6.1409
   XY=              0.0000   XZ=              0.0000   YZ=              0.0000

 Normal termination of Gaussian 16 at Mon Feb 20 10:15:58 2023.
