 Gaussian 16, Revision C.01,
 Gaussian 16:  ES64L-G16RevC.01  3-Jul-2019

 ------------------------------------
 #P wB97XD/6-311g** scf(maxcycle=200)
 ------------------------------------

 --------------
 Gaussian input
 --------------
 Symbolic Z-matrix:
 Charge =  0 Multiplicity = 1

                         Standard orientation:
 ---------------------------------------------------------------------
 Center     Atomic      Atomic             Coordinates (Angstroms)
 Number     Number       Type             X           Y           Z
 ---------------------------------------------------------------------
      1          8           0        0.000000    0.101210    0.000000
      2          1           0        0.784070   -0.358698    0.000000
      3          1           0       -0.784070   -0.450981    0.000000
 ---------------------------------------------------------------------

 SCF Done:  E(RwB97XD) =  -76.4187744365     A.U. after   12 cycles

 The electronic state is 1-A'.
 Alpha  occ. eigenvalues --  -19.21633  -1.10633  -0.63691  -0.44544  -0.38559
 Alpha virt. eigenvalues --    0.12573   0.19736   0.48127   0.51080   0.84885
 Alpha virt. eigenvalues --    0.85601   0.95059   1.14818   1.32805   1.47051
 Alpha virt. eigenvalues --    1.60551   1.70093   2.09281   2.13784   2.44605

 Mulliken charges:
               1
     1  O   -0.520413
     2  H    0.260432
     3  H    0.259981
 Sum of Mulliken charges =  -0.00000

 Dipole moment (field-independent basis, Debye):
    X=              0.0381    Y=             -1.9319    Z=              0.0000  Tot=              1.9322
 Quadrupole moment (field-independent basis, Debye-Ang):
   XX=             -3.8590   YY=             -6.2565   ZZ=             -7.1244
   XY=              0.1624   XZ=              0.0000   YZ=              0.0000

 Normal termination of Gaussian 16 at Wed Feb  8 14:40:29 2023.
