 Gaussian 16, Revision C.01,
 Gaussian 16:  ES64L-G16RevC.01  3-Jul-2019

 ------------------------------------
 #P wB97XD/6-311g** scf(maxcycle=200)
 ------------------------------------

 --------------
 Gaussian input
 --------------
 Symbolic Z-matrix:
 Charge =  0 Multiplicity = 1

                         Standard orientation:
 ---------------------------------------------------------------------
 Center     Atomic      Atomic             Coordinates (Angstroms)
 Number     Number       Type             X           Y           Z
 ---------------------------------------------------------------------
      1          8           0        0.000000    0.000000    0.092327
      2          1           0       -0.000000    0.840580   -0.369308
      3          1           0       -0.000000   -0.840580   -0.369308
 ---------------------------------------------------------------------

 SCF Done:  E(RwB97XD) =  -76.4161077257     A.U. after   12 cycles

 The electronic state is 1-A1.
 Alpha  occ. eigenvalues --  -19.21553  -1.08883  -0.63718  -0.42820  -0.38068
 Alpha virt. eigenvalues --    0.12110   0.19291   0.45344   0.50583   0.85137
 Alpha virt. eigenvalues --    0.85824   0.94265   1.15107   1.30750   1.55905
 Alpha virt. eigenvalues --    1.62889   1.63353   2.07625   2.11696   2.49840

 Mulliken charges:
               1
     1  O   -0.549621
     2  H    0.274811
     3  H    0.274811
 Sum of Mulliken charges =   0.00000

 Dipole moment (field-independent basis, Debye):
    X=             -0.0000    Y=              0.0000    Z=             -1.7974  Tot=              1.7974
 Quadrupole moment (field-independent basis, Debye-Ang):
   XX=             -7.1903   YY=             -3.4460   ZZ=             -6.4808
   XY=              0.0000   XZ=              0.0000   YZ=             -0.0000

 Normal termination of Gaussian 16 at Wed Feb  8 14:41:38 2023.
