 Gaussian 16, Revision C.01,
 Gaussian 16:  ES64L-G16RevC.01  3-Jul-2019

 ------------------------------
 #P HF/6-31g* scf(maxcycle=200)
 ------------------------------

 --------------
 Gaussian input
 --------------
 Symbolic Z-matrix:
 Charge =  0 Multiplicity = 1

                         Standard orientation:
 ---------------------------------------------------------------------
 Center     Atomic      Atomic             Coordinates (Angstroms)
 Number     Number       Type             X           Y           Z
 ---------------------------------------------------------------------
      1          8           0       -0.000000    0.000000    0.132472
      2          1           0        0.000000    0.622542   -0.529889
      3          1           0       -0.000000   -0.622542   -0.529889
 ---------------------------------------------------------------------

 SCF Done:  E(RHF) =  -75.9938937183     A.U. after   10 cycles

 The electronic state is 1-A1.
 Alpha  occ. eigenvalues --  -20.55882  -1.38815  -0.69214  -0.61883  -0.50784
 Alpha virt. eigenvalues --    0.21246   0.31712   0.98412   1.12580   1.16349
 Alpha virt. eigenvalues --    1.28631   1.38917   1.49647   1.97256   2.03657
 Alpha virt. eigenvalues --    2.03927   2.76373   2.93889   3.95446

 Mulliken charges:
               1
     1  O   -0.836985
     2  H    0.418492
     3  H    0.418492
 Sum of Mulliken charges =  -0.00000

 Dipole moment (field-independent basis, Debye):
    X=             -0.0000    Y=             -0.0000    Z=             -2.4688  Tot=              2.4688
 Quadrupole moment (field-independent basis, Debye-Ang):
   XX=             -7.1311   YY=             -4.9976   ZZ=             -5.4855
   XY=              0.0000   XZ=              0.0000   YZ=             -0.0000

 Normal termination of Gaussian 16 at Wed Feb  8 15:04:48 2023.
