 Gaussian 16, Revision C.01,
 Gaussian 16:  ES64L-G16RevC.01  3-Jul-2019

 -----------------------------------
 #P HF/aug-cc-pVDZ scf(maxcycle=200)
 -----------------------------------

 --------------
 Gaussian input
 --------------
 Symbolic Z-matrix:
 Charge =  0 Multiplicity = 1

                         Standard orientation:
 ---------------------------------------------------------------------
 Center     Atomic      Atomic             Coordinates (Angstroms)
 Number     Number       Type             X           Y           Z
 ---------------------------------------------------------------------
      1          8           0        0.000000    0.125491    0.000000
      2          1           0        0.722938   -0.578385   -0.000000
      3          1           0       -0.722938   -0.425546   -0.000000
 ---------------------------------------------------------------------

 SCF Done:  E(RHF) =  -76.0349161773     A.U. after   10 cycles

 The electronic state is 1-A'.
 Alpha  occ. eigenvalues --  -20.57966  -1.36270  -0.70706  -0.59629  -0.51124
 Alpha virt. eigenvalues --    0.03471   0.05848   0.17286   0.19731   0.22167
 Alpha virt. eigenvalues --    0.23342   0.28589   0.34226   0.38796   0.39318
 Alpha virt. eigenvalues --    0.42634   0.54508   0.63758   0.66356   0.79866

 Mulliken charges:
               1
     1  O   -0.289464
     2  H    0.198165
     3  H    0.091300
 Sum of Mulliken charges =   0.00000

 Dipole moment (field-independent basis, Debye):
    X=             -0.0535    Y=             -2.0969    Z=             -0.0000  Tot=              2.0976
 Quadrupole moment (field-independent basis, Debye-Ang):
   XX=             -4.5588   YY=             -6.0522   ZZ=             -7.5794
   XY=             -0.2371   XZ=             -0.0000   YZ=              0.0000

 Normal termination of Gaussian 16 at Mon Feb 20 10:28:47 2023.
