 Gaussian 16, Revision C.01,
 Gaussian 16:  ES64L-G16RevC.01  3-Jul-2019

 ------------------------------
 #P HF/6-31g* scf(maxcycle=200)
 ------------------------------

 --------------
 Gaussian input
 --------------
 Symbolic Z-matrix:
 Charge =  0 Multiplicity = 1

                         Standard orientation:
 ---------------------------------------------------------------------
 Center     Atomic      Atomic             Coordinates (Angstroms)
 Number     Number       Type             X           Y           Z
 ---------------------------------------------------------------------
      1          8           0        0.000000    0.109279   -0.000000
      2          1           0        0.756707   -0.479852   -0.000000
      3          1           0       -0.756707   -0.394383    0.000000
 ---------------------------------------------------------------------

 SCF Done:  E(RHF) =  -76.0086518212     A.U. after   10 cycles

 The electronic state is 1-A'.
 Alpha  occ. eigenvalues --  -20.55351  -1.35138  -0.72752  -0.56696  -0.49811
 Alpha virt. eigenvalues --    0.21573   0.31045   1.04887   1.13344   1.16875
 Alpha virt. eigenvalues --    1.18455   1.39411   1.42418   2.02460   2.02623
 Alpha virt. eigenvalues --    2.06854   2.65307   2.99521   3.99093

 Mulliken charges:
               1
     1  O   -0.873510
     2  H    0.436090
     3  H    0.437420
 Sum of Mulliken charges =  -0.00000

 Dipole moment (field-independent basis, Debye):
    X=             -0.0367    Y=             -2.1338    Z=              0.0000  Tot=              2.1341
 Quadrupole moment (field-independent basis, Debye-Ang):
   XX=             -4.0085   YY=             -6.0628   ZZ=             -7.1769
   XY=             -0.1430   XZ=             -0.0000   YZ=              0.0000

 Normal termination of Gaussian 16 at Wed Feb  8 15:05:50 2023.
