 Gaussian 16, Revision C.01,
 Gaussian 16:  ES64L-G16RevC.01  3-Jul-2019

 ----------------------------------------
 #P CCSD(T)/aug-cc-pVDZ scf(maxcycle=200)
 ----------------------------------------

 --------------
 Gaussian input
 --------------
 Symbolic Z-matrix:
 Charge =  0 Multiplicity = 1

                         Standard orientation:
 ---------------------------------------------------------------------
 Center     Atomic      Atomic             Coordinates (Angstroms)
 Number     Number       Type             X           Y           Z
 ---------------------------------------------------------------------
      1          8           0        0.000000    0.115122    0.000000
      2          1           0        0.797327   -0.417749    0.000000
      3          1           0       -0.797327   -0.503223    0.000000
 ---------------------------------------------------------------------

 SCF Done:  E(RHF) =  -76.0371157882     A.U. after   10 cycles
 E2 =    -0.2214677790D+00 EUMP2 =    -0.76258583567118D+02
 CCSD(T)
 CCSD(T)= -0.76271648147D+02

 The electronic state is 1-A'.
 Alpha  occ. eigenvalues --  -20.57963  -1.34114  -0.71220  -0.57267  -0.50613
 Alpha virt. eigenvalues --    0.03521   0.05743   0.17498   0.19753   0.21913
 Alpha virt. eigenvalues --    0.23097   0.28535   0.32271   0.38135   0.40809
 Alpha virt. eigenvalues --    0.43606   0.53122   0.63888   0.65775   0.81075

 Mulliken charges:
               1
     1  O   -0.364979
     2  H    0.154296
     3  H    0.210684
 Sum of Mulliken charges =  -0.00000

 Dipole moment (field-independent basis, Debye):
    X=              0.0205    Y=             -1.9535    Z=              0.0000  Tot=              1.9536
 Quadrupole moment (field-independent basis, Debye-Ang):
   XX=             -4.0396   YY=             -6.3934   ZZ=             -7.6602
   XY=              0.1564   XZ=              0.0000   YZ=              0.0000

 2664626\CCSD=-76.266257\CCSD(T)=-76.2716481\RMSD=9.644e-09\PG=CS [SG(H
 Normal termination of Gaussian 16 at Wed Feb  8 14:49:48 2023.
