 Gaussian 16, Revision C.01,
 Gaussian 16:  ES64L-G16RevC.01  3-Jul-2019

 ------------------------------
 #P HF/6-31g* scf(maxcycle=200)
 ------------------------------

 --------------
 Gaussian input
 --------------
 Symbolic Z-matrix:
 Charge =  0 Multiplicity = 1

                         Standard orientation:
 ---------------------------------------------------------------------
 Center     Atomic      Atomic             Coordinates (Angstroms)
 Number     Number       Type             X           Y           Z
 ---------------------------------------------------------------------
      1          8           0        0.000000    0.136159   -0.000000
      2          1           0        0.639004   -0.578933    0.000000
      3          1           0       -0.639004   -0.510336   -0.000000
 ---------------------------------------------------------------------

 SCF Done:  E(RHF) =  -75.9966539321     A.U. after   10 cycles

 The electronic state is 1-A'.
 Alpha  occ. eigenvalues --  -20.56417  -1.37330  -0.68038  -0.61334  -0.50616
 Alpha virt. eigenvalues --    0.20772   0.30988   0.97243   1.12570   1.16335
 Alpha virt. eigenvalues --    1.25000   1.38000   1.49749   1.98030   2.03984
 Alpha virt. eigenvalues --    2.04597   2.71579   2.90863   3.94270

 Mulliken charges:
               1
     1  O   -0.836981
     2  H    0.415151
     3  H    0.421830
 Sum of Mulliken charges =  -0.00000

 Dipole moment (field-independent basis, Debye):
    X=             -0.0494    Y=             -2.4934    Z=              0.0000  Tot=              2.4939
 Quadrupole moment (field-independent basis, Debye-Ang):
   XX=             -4.9891   YY=             -5.4765   ZZ=             -7.1833
   XY=             -0.0735   XZ=             -0.0000   YZ=              0.0000

 Normal termination of Gaussian 16 at Wed Feb  8 15:05:43 2023.
