 Gaussian 16, Revision C.01,
 Gaussian 16:  ES64L-G16RevC.01  3-Jul-2019

 ---------------------------------
 #P B3LYP/6-31g* scf(maxcycle=200)
 ---------------------------------

 --------------
 Gaussian input
 --------------
 Symbolic Z-matrix:
 Charge =  0 Multiplicity = 1

                         Standard orientation:
 ---------------------------------------------------------------------
 Center     Atomic      Atomic             Coordinates (Angstroms)
 Number     Number       Type             X           Y           Z
 ---------------------------------------------------------------------
      1          8           0        0.000000    0.125966    0.000000
      2          1           0        0.755426   -0.464807    0.000000
      3          1           0       -0.755426   -0.542923    0.000000
 ---------------------------------------------------------------------

 SCF Done:  E(RB3LYP) =  -76.4073143258     A.U. after    9 cycles

 The electronic state is 1-A'.
 Alpha  occ. eigenvalues --  -19.14239  -0.99477  -0.50608  -0.37785  -0.29131
 Alpha virt. eigenvalues --    0.05689   0.14221   0.75223   0.85783   0.89007
 Alpha virt. eigenvalues --    0.89567   1.06028   1.20402   1.72338   1.75172
 Alpha virt. eigenvalues --    1.77849   2.25905   2.54907   3.53893

 Mulliken charges:
               1
     1  O   -0.764077
     2  H    0.387156
     3  H    0.376921
 Sum of Mulliken charges =  -0.00000

 Dipole moment (field-independent basis, Debye):
    X=              0.0510    Y=             -2.1466    Z=              0.0000  Tot=              2.1472
 Quadrupole moment (field-independent basis, Debye-Ang):
   XX=             -4.4180   YY=             -5.9061   ZZ=             -7.2342
   XY=              0.1051   XZ=              0.0000   YZ=              0.0000

 Normal termination of Gaussian 16 at Wed Feb  8 14:51:31 2023.
