 Gaussian 16, Revision C.01,
 Gaussian 16:  ES64L-G16RevC.01  3-Jul-2019

 ------------------------------------
 #P wB97XD/6-311g** scf(maxcycle=200)
 ------------------------------------

 --------------
 Gaussian input
 --------------
 Symbolic Z-matrix:
 Charge =  0 Multiplicity = 1

                         Standard orientation:
 ---------------------------------------------------------------------
 Center     Atomic      Atomic             Coordinates (Angstroms)
 Number     Number       Type             X           Y           Z
 ---------------------------------------------------------------------
      1          8           0        0.000000    0.000000    0.111364
      2          1           0        0.000000    0.718494   -0.445455
      3          1           0       -0.000000   -0.718494   -0.445455
 ---------------------------------------------------------------------

 SCF Done:  E(RwB97XD) =  -76.4182141381     A.U. after   11 cycles

 The electronic state is 1-A1.
 Alpha  occ. eigenvalues --  -19.21729  -1.12598  -0.63026  -0.46722  -0.39067
 Alpha virt. eigenvalues --    0.12897   0.20204   0.49096   0.53990   0.84759
 Alpha virt. eigenvalues --    0.85395   0.95981   1.14923   1.31929   1.36216
 Alpha virt. eigenvalues --    1.55917   1.78957   2.08306   2.18874   2.41311

 Mulliken charges:
               1
     1  O   -0.481520
     2  H    0.240760
     3  H    0.240760
 Sum of Mulliken charges =   0.00000

 Dipole moment (field-independent basis, Debye):
    X=             -0.0000    Y=              0.0000    Z=             -2.0660  Tot=              2.0660
 Quadrupole moment (field-independent basis, Debye-Ang):
   XX=             -7.0586   YY=             -4.3086   ZZ=             -6.0046
   XY=              0.0000   XZ=              0.0000   YZ=             -0.0000

 Normal termination of Gaussian 16 at Wed Feb  8 14:39:51 2023.
