 Gaussian 16, Revision C.01,
 Gaussian 16:  ES64L-G16RevC.01  3-Jul-2019

 ------------------------------------
 #P wB97XD/6-311g** scf(maxcycle=200)
 ------------------------------------

 --------------
 Gaussian input
 --------------
 Symbolic Z-matrix:
 Charge =  0 Multiplicity = 1

                         Standard orientation:
 ---------------------------------------------------------------------
 Center     Atomic      Atomic             Coordinates (Angstroms)
 Number     Number       Type             X           Y           Z
 ---------------------------------------------------------------------
      1          8           0        0.000000    0.000000    0.114826
      2          1           0       -0.000000    0.768152   -0.459303
      3          1           0       -0.000000   -0.768152   -0.459303
 ---------------------------------------------------------------------

 SCF Done:  E(RwB97XD) =  -76.4232088956     A.U. after   12 cycles

 The electronic state is 1-A1.
 Alpha  occ. eigenvalues --  -19.22492  -1.10115  -0.61356  -0.45878  -0.38575
 Alpha virt. eigenvalues --    0.11950   0.19234   0.46918   0.50307   0.85090
 Alpha virt. eigenvalues --    0.85544   0.95093   1.15360   1.34451   1.36420
 Alpha virt. eigenvalues --    1.55864   1.73103   2.02959   2.14176   2.39075

 Mulliken charges:
               1
     1  O   -0.494619
     2  H    0.247310
     3  H    0.247310
 Sum of Mulliken charges =   0.00000

 Dipole moment (field-independent basis, Debye):
    X=             -0.0000    Y=             -0.0000    Z=             -2.0689  Tot=              2.0689
 Quadrupole moment (field-independent basis, Debye-Ang):
   XX=             -7.1729   YY=             -4.1321   ZZ=             -6.0831
   XY=              0.0000   XZ=              0.0000   YZ=              0.0000

 Normal termination of Gaussian 16 at Wed Feb  8 14:41:30 2023.
