 Gaussian 16, Revision C.01,
 Gaussian 16:  ES64L-G16RevC.01  3-Jul-2019

 ----------------------------------------
 #P PBE1PBE/aug-cc-pVDZ scf(maxcycle=200)
 ----------------------------------------

 --------------
 Gaussian input
 --------------
 Symbolic Z-matrix:
 Charge =  0 Multiplicity = 1

                         Standard orientation:
 ---------------------------------------------------------------------
 Center     Atomic      Atomic             Coordinates (Angstroms)
 Number     Number       Type             X           Y           Z
 ---------------------------------------------------------------------
      1          8           0        0.000000    0.092742    0.000000
      2          1           0        0.834542   -0.267564    0.000000
      3          1           0       -0.834542   -0.474374    0.000000
 ---------------------------------------------------------------------

 SCF Done:  E(RPBE1PBE) =  -76.3480040195     A.U. after    9 cycles

 The electronic state is 1-A'.
 Alpha  occ. eigenvalues --  -19.22238  -1.03879  -0.58065  -0.37873  -0.32955
 Alpha virt. eigenvalues --   -0.01174   0.03090   0.11269   0.13012   0.13231
 Alpha virt. eigenvalues --    0.16296   0.20422   0.22044   0.28130   0.34154
 Alpha virt. eigenvalues --    0.36302   0.43289   0.50633   0.54460   0.67967

 Mulliken charges:
               1
     1  O   -0.273307
     2  H    0.078710
     3  H    0.194597
 Sum of Mulliken charges =  -0.00000

 Dipole moment (field-independent basis, Debye):
    X=              0.0247    Y=             -1.5768    Z=              0.0000  Tot=              1.5770
 Quadrupole moment (field-independent basis, Debye-Ang):
   XX=             -3.7830   YY=             -6.8997   ZZ=             -7.7887
   XY=              0.4273   XZ=              0.0000   YZ=              0.0000

 Normal termination of Gaussian 16 at Mon Mar 20 17:58:40 2023.
