 Gaussian 16, Revision C.01,
 Gaussian 16:  ES64L-G16RevC.01  3-Jul-2019

 ------------------------------------
 #P wB97XD/6-311g** scf(maxcycle=200)
 ------------------------------------

 --------------
 Gaussian input
 --------------
 Symbolic Z-matrix:
 Charge =  0 Multiplicity = 1

                         Standard orientation:
 ---------------------------------------------------------------------
 Center     Atomic      Atomic             Coordinates (Angstroms)
 Number     Number       Type             X           Y           Z
 ---------------------------------------------------------------------
      1          8           0        0.000000    0.000000    0.090281
      2          1           0        0.000000    0.788996   -0.361124
      3          1           0       -0.000000   -0.788996   -0.361124
 ---------------------------------------------------------------------

 SCF Done:  E(RwB97XD) =  -76.4139102997     A.U. after   12 cycles

 The electronic state is 1-A1.
 Alpha  occ. eigenvalues --  -19.20917  -1.11244  -0.65739  -0.43674  -0.38630
 Alpha virt. eigenvalues --    0.13250   0.20134   0.48844   0.52658   0.84843
 Alpha virt. eigenvalues --    0.85608   0.95143   1.14575   1.31845   1.54047
 Alpha virt. eigenvalues --    1.64276   1.68694   2.11718   2.16372   2.49604

 Mulliken charges:
               1
     1  O   -0.535873
     2  H    0.267937
     3  H    0.267937
 Sum of Mulliken charges =  -0.00000

 Dipole moment (field-independent basis, Debye):
    X=             -0.0000    Y=              0.0000    Z=             -1.8097  Tot=              1.8097
 Quadrupole moment (field-independent basis, Debye-Ang):
   XX=             -7.0736   YY=             -3.6878   ZZ=             -6.3797
   XY=              0.0000   XZ=              0.0000   YZ=             -0.0000

 Normal termination of Gaussian 16 at Wed Feb  8 14:40:16 2023.
