 Gaussian 16, Revision C.01,
 Gaussian 16:  ES64L-G16RevC.01  3-Jul-2019

 ----------------------------------------
 #P PBE1PBE/aug-cc-pVDZ scf(maxcycle=200)
 ----------------------------------------

 --------------
 Gaussian input
 --------------
 Symbolic Z-matrix:
 Charge =  0 Multiplicity = 1

                         Standard orientation:
 ---------------------------------------------------------------------
 Center     Atomic      Atomic             Coordinates (Angstroms)
 Number     Number       Type             X           Y           Z
 ---------------------------------------------------------------------
      1          8           0        0.000000    0.136159   -0.000000
      2          1           0        0.639004   -0.578933    0.000000
      3          1           0       -0.639004   -0.510336   -0.000000
 ---------------------------------------------------------------------

 SCF Done:  E(RPBE1PBE) =  -76.3468492024     A.U. after    8 cycles

 The electronic state is 1-A'.
 Alpha  occ. eigenvalues --  -19.23253  -1.07619  -0.52334  -0.44883  -0.33892
 Alpha virt. eigenvalues --   -0.01339   0.03553   0.10928   0.13275   0.14888
 Alpha virt. eigenvalues --    0.17451   0.18674   0.26810   0.28081   0.30351
 Alpha virt. eigenvalues --    0.31502   0.47444   0.51389   0.55580   0.61110

 Mulliken charges:
               1
     1  O   -0.167122
     2  H    0.104548
     3  H    0.062574
 Sum of Mulliken charges =  -0.00000

 Dipole moment (field-independent basis, Debye):
    X=             -0.0324    Y=             -2.0926    Z=              0.0000  Tot=              2.0928
 Quadrupole moment (field-independent basis, Debye-Ang):
   XX=             -5.2472   YY=             -5.8963   ZZ=             -7.6520
   XY=             -0.0836   XZ=              0.0000   YZ=             -0.0000

 Normal termination of Gaussian 16 at Mon Mar 20 17:58:42 2023.
