 Gaussian 16, Revision C.01,
 Gaussian 16:  ES64L-G16RevC.01  3-Jul-2019

 ------------------------------------
 #P wB97XD/6-311g** scf(maxcycle=200)
 ------------------------------------

 --------------
 Gaussian input
 --------------
 Symbolic Z-matrix:
 Charge =  0 Multiplicity = 1

                         Standard orientation:
 ---------------------------------------------------------------------
 Center     Atomic      Atomic             Coordinates (Angstroms)
 Number     Number       Type             X           Y           Z
 ---------------------------------------------------------------------
      1          8           0        0.000000    0.000000    0.087513
      2          1           0       -0.000000    0.796754   -0.350053
      3          1           0       -0.000000   -0.796754   -0.350053
 ---------------------------------------------------------------------

 SCF Done:  E(RwB97XD) =  -76.4126880000     A.U. after   12 cycles

 The electronic state is 1-A1.
 Alpha  occ. eigenvalues --  -19.20807  -1.11086  -0.66024  -0.43316  -0.38574
 Alpha virt. eigenvalues --    0.13276   0.20129   0.48195   0.53203   0.84895
 Alpha virt. eigenvalues --    0.85636   0.95046   1.14617   1.31431   1.56196
 Alpha virt. eigenvalues --    1.65156   1.67497   2.10800   2.17364   2.51038

 Mulliken charges:
               1
     1  O   -0.541905
     2  H    0.270952
     3  H    0.270952
 Sum of Mulliken charges =  -0.00000

 Dipole moment (field-independent basis, Debye):
    X=             -0.0000    Y=             -0.0000    Z=             -1.7711  Tot=              1.7711
 Quadrupole moment (field-independent basis, Debye-Ang):
   XX=             -7.0757   YY=             -3.6131   ZZ=             -6.4233
   XY=              0.0000   XZ=              0.0000   YZ=              0.0000

 Normal termination of Gaussian 16 at Wed Feb  8 14:40:17 2023.
