 Gaussian 16, Revision C.01,
 Gaussian 16:  ES64L-G16RevC.01  3-Jul-2019

 ----------------------------------------
 #P CCSD(T)/aug-cc-pVDZ scf(maxcycle=200)
 ----------------------------------------

 --------------
 Gaussian input
 --------------
 Symbolic Z-matrix:
 Charge =  0 Multiplicity = 1

                         Standard orientation:
 ---------------------------------------------------------------------
 Center     Atomic      Atomic             Coordinates (Angstroms)
 Number     Number       Type             X           Y           Z
 ---------------------------------------------------------------------
      1          8           0        0.000000    0.120617    0.000000
      2          1           0        0.776856   -0.441678    0.000000
      3          1           0       -0.776856   -0.523258    0.000000
 ---------------------------------------------------------------------

 SCF Done:  E(RHF) =  -76.0375031215     A.U. after   10 cycles
 E2 =    -0.2217029047D+00 EUMP2 =    -0.76259206026243D+02
 CCSD(T)
 CCSD(T)= -0.76272262578D+02

 The electronic state is 1-A'.
 Alpha  occ. eigenvalues --  -20.58159  -1.34384  -0.70499  -0.58039  -0.50738
 Alpha virt. eigenvalues --    0.03491   0.05779   0.17448   0.19795   0.22005
 Alpha virt. eigenvalues --    0.23230   0.28279   0.32854   0.38361   0.40018
 Alpha virt. eigenvalues --    0.43002   0.53534   0.63831   0.65834   0.80061

 Mulliken charges:
               1
     1  O   -0.355285
     2  H    0.150120
     3  H    0.205164
 Sum of Mulliken charges =   0.00000

 Dipole moment (field-independent basis, Debye):
    X=              0.0232    Y=             -2.0210    Z=              0.0000  Tot=              2.0212
 Quadrupole moment (field-independent basis, Debye-Ang):
   XX=             -4.2230   YY=             -6.2678   ZZ=             -7.6517
   XY=              0.1410   XZ=              0.0000   YZ=              0.0000

 2670557\CCSD=-76.266851\CCSD(T)=-76.2722626\RMSD=9.645e-09\PG=CS [SG(H
 Normal termination of Gaussian 16 at Wed Feb  8 14:49:48 2023.
