 Gaussian 16, Revision C.01,
 Gaussian 16:  ES64L-G16RevC.01  3-Jul-2019

 ----------------------------------------
 #P CCSD(T)/aug-cc-pVTZ scf(maxcycle=200)
 ----------------------------------------

 --------------
 Gaussian input
 --------------
 Symbolic Z-matrix:
 Charge =  0 Multiplicity = 1

                         Standard orientation:
 ---------------------------------------------------------------------
 Center     Atomic      Atomic             Coordinates (Angstroms)
 Number     Number       Type             X           Y           Z
 ---------------------------------------------------------------------
      1          8           0        0.000000   -0.000000    0.115098
      2          1           0       -0.000000    0.828791   -0.460391
      3          1           0       -0.000000   -0.828791   -0.460391
 ---------------------------------------------------------------------

 SCF Done:  E(RHF) =  -76.0514681021     A.U. after   10 cycles
 E2 =    -0.2721462895D+00 EUMP2 =    -0.76323614391575D+02
 CCSD(T)
 CCSD(T)= -0.76337024919D+02

 The electronic state is 1-A1.
 Alpha  occ. eigenvalues --  -20.57301  -1.32473  -0.70033  -0.56382  -0.50440
 Alpha virt. eigenvalues --    0.02906   0.04708   0.13639   0.16017   0.17142
 Alpha virt. eigenvalues --    0.18136   0.22493   0.24201   0.26258   0.30457
 Alpha virt. eigenvalues --    0.31273   0.36374   0.42616   0.45697   0.60092

 Mulliken charges:
               1
     1  O   -0.513371
     2  H    0.256685
     3  H    0.256685
 Sum of Mulliken charges =  -0.00000

 Dipole moment (field-independent basis, Debye):
    X=             -0.0000    Y=             -0.0000    Z=             -1.9194  Tot=              1.9194
 Quadrupole moment (field-independent basis, Debye-Ang):
   XX=             -7.6873   YY=             -3.8354   ZZ=             -6.4649
   XY=              0.0000   XZ=              0.0000   YZ=              0.0000

 .3284291\CCSD=-76.3278966\CCSD(T)=-76.3370249\RMSD=6.055e-09\PG=C02V [
 Normal termination of Gaussian 16 at Wed Feb  8 13:58:15 2023.
