 Gaussian 16, Revision C.01,
 Gaussian 16:  ES64L-G16RevC.01  3-Jul-2019

 ----------------------------------------
 #P PBE1PBE/aug-cc-pVDZ scf(maxcycle=200)
 ----------------------------------------

 --------------
 Gaussian input
 --------------
 Symbolic Z-matrix:
 Charge =  0 Multiplicity = 1

                         Standard orientation:
 ---------------------------------------------------------------------
 Center     Atomic      Atomic             Coordinates (Angstroms)
 Number     Number       Type             X           Y           Z
 ---------------------------------------------------------------------
      1          8           0        0.000000   -0.000000    0.109243
      2          1           0       -0.000000    0.848370   -0.436971
      3          1           0       -0.000000   -0.848370   -0.436971
 ---------------------------------------------------------------------

 SCF Done:  E(RPBE1PBE) =  -76.3530116325     A.U. after    8 cycles

 The electronic state is 1-A1.
 Alpha  occ. eigenvalues --  -19.23353  -1.02133  -0.54842  -0.38828  -0.32688
 Alpha virt. eigenvalues --   -0.01603   0.02919   0.10977   0.13217   0.13350
 Alpha virt. eigenvalues --    0.15423   0.19123   0.22070   0.28103   0.31699
 Alpha virt. eigenvalues --    0.34232   0.43311   0.50176   0.52198   0.65387

 Mulliken charges:
               1
     1  O   -0.353092
     2  H    0.176546
     3  H    0.176546
 Sum of Mulliken charges =   0.00000

 Dipole moment (field-independent basis, Debye):
    X=             -0.0000    Y=             -0.0000    Z=             -1.7287  Tot=              1.7287
 Quadrupole moment (field-independent basis, Debye-Ang):
   XX=             -7.8936   YY=             -3.9131   ZZ=             -6.7767
   XY=              0.0000   XZ=              0.0000   YZ=              0.0000

 Normal termination of Gaussian 16 at Wed Mar 29 21:53:55 2023.
