 Gaussian 16, Revision C.01,
 Gaussian 16:  ES64L-G16RevC.01  3-Jul-2019

 -----------------------------------
 #P HF/aug-cc-pVDZ scf(maxcycle=200)
 -----------------------------------

 --------------
 Gaussian input
 --------------
 Symbolic Z-matrix:
 Charge =  0 Multiplicity = 1

                         Standard orientation:
 ---------------------------------------------------------------------
 Center     Atomic      Atomic             Coordinates (Angstroms)
 Number     Number       Type             X           Y           Z
 ---------------------------------------------------------------------
      1          8           0        0.000000    0.000000    0.090281
      2          1           0        0.000000    0.788996   -0.361124
      3          1           0       -0.000000   -0.788996   -0.361124
 ---------------------------------------------------------------------

 SCF Done:  E(RHF) =  -76.0347396218     A.U. after   10 cycles

 The electronic state is 1-A1.
 Alpha  occ. eigenvalues --  -20.56160  -1.37143  -0.77750  -0.56355  -0.50949
 Alpha virt. eigenvalues --    0.03735   0.05681   0.17446   0.19211   0.22295
 Alpha virt. eigenvalues --    0.22503   0.31455   0.31628   0.38118   0.44420
 Alpha virt. eigenvalues --    0.46655   0.52984   0.65342   0.66555   0.88762

 Mulliken charges:
               1
     1  O   -0.232202
     2  H    0.116101
     3  H    0.116101
 Sum of Mulliken charges =  -0.00000

 Dipole moment (field-independent basis, Debye):
    X=             -0.0000    Y=              0.0000    Z=             -1.6836  Tot=              1.6836
 Quadrupole moment (field-independent basis, Debye-Ang):
   XX=             -7.5033   YY=             -3.7726   ZZ=             -6.6750
   XY=              0.0000   XZ=              0.0000   YZ=             -0.0000

 Normal termination of Gaussian 16 at Mon Feb 20 10:14:46 2023.
