 Gaussian 16, Revision C.01,
 Gaussian 16:  ES64L-G16RevC.01  3-Jul-2019

 ----------------------------------------
 #P CCSD(T)/aug-cc-pVTZ scf(maxcycle=200)
 ----------------------------------------

 --------------
 Gaussian input
 --------------
 Symbolic Z-matrix:
 Charge =  0 Multiplicity = 1

                         Standard orientation:
 ---------------------------------------------------------------------
 Center     Atomic      Atomic             Coordinates (Angstroms)
 Number     Number       Type             X           Y           Z
 ---------------------------------------------------------------------
      1          8           0        0.000000    0.138657    0.000000
      2          1           0        0.697840   -0.519143    0.000000
      3          1           0       -0.697840   -0.590109    0.000000
 ---------------------------------------------------------------------

 SCF Done:  E(RHF) =  -76.0507818577     A.U. after   10 cycles
 E2 =    -0.2721454046D+00 EUMP2 =    -0.76322927262341D+02
 CCSD(T)
 CCSD(T)= -0.76336133040D+02

 The electronic state is 1-A'.
 Alpha  occ. eigenvalues --  -20.57749  -1.35112  -0.67567  -0.60701  -0.51235
 Alpha virt. eigenvalues --    0.02801   0.04850   0.13316   0.16182   0.17634
 Alpha virt. eigenvalues --    0.18670   0.22022   0.24580   0.27048   0.28571
 Alpha virt. eigenvalues --    0.30287   0.36771   0.42834   0.46051   0.59029

 Mulliken charges:
               1
     1  O   -0.478180
     2  H    0.221597
     3  H    0.256583
 Sum of Mulliken charges =  -0.00000

 Dipole moment (field-independent basis, Debye):
    X=              0.0299    Y=             -2.2249    Z=              0.0000  Tot=              2.2251
 Quadrupole moment (field-independent basis, Debye-Ang):
   XX=             -4.8410   YY=             -5.8033   ZZ=             -7.5992
   XY=              0.0958   XZ=              0.0000   YZ=              0.0000

 3276091\CCSD=-76.327079\CCSD(T)=-76.336133\RMSD=4.407e-09\PG=CS [SG(H2
 Normal termination of Gaussian 16 at Wed Feb  8 13:54:00 2023.
