 Gaussian 16, Revision C.01,
 Gaussian 16:  ES64L-G16RevC.01  3-Jul-2019

 ----------------------------------------
 #P PBE1PBE/aug-cc-pVDZ scf(maxcycle=200)
 ----------------------------------------

 --------------
 Gaussian input
 --------------
 Symbolic Z-matrix:
 Charge =  0 Multiplicity = 1

                         Standard orientation:
 ---------------------------------------------------------------------
 Center     Atomic      Atomic             Coordinates (Angstroms)
 Number     Number       Type             X           Y           Z
 ---------------------------------------------------------------------
      1          8           0       -0.000000    0.143443   -0.000000
      2          1           0        0.673280   -0.608072   -0.000000
      3          1           0       -0.673280   -0.539473    0.000000
 ---------------------------------------------------------------------

 SCF Done:  E(RPBE1PBE) =  -76.3502015343     A.U. after    9 cycles

 The electronic state is 1-A'.
 Alpha  occ. eigenvalues --  -19.24074  -1.05175  -0.50664  -0.44408  -0.33495
 Alpha virt. eigenvalues --   -0.01729   0.03329   0.10670   0.13360   0.14427
 Alpha virt. eigenvalues --    0.15960   0.18434   0.26128   0.27298   0.29912
 Alpha virt. eigenvalues --    0.30790   0.46637   0.49846   0.54071   0.60433

 Mulliken charges:
               1
     1  O   -0.265666
     2  H    0.154103
     3  H    0.111564
 Sum of Mulliken charges =   0.00000

 Dipole moment (field-independent basis, Debye):
    X=             -0.0319    Y=             -2.1229    Z=              0.0000  Tot=              2.1231
 Quadrupole moment (field-independent basis, Debye-Ang):
   XX=             -5.2124   YY=             -5.8917   ZZ=             -7.7730
   XY=             -0.0860   XZ=             -0.0000   YZ=             -0.0000

 Normal termination of Gaussian 16 at Wed Mar 29 21:53:12 2023.
