 Gaussian 16, Revision C.01,
 Gaussian 16:  ES64L-G16RevC.01  3-Jul-2019

 ----------------------------------------
 #P CCSD(T)/aug-cc-pVTZ scf(maxcycle=200)
 ----------------------------------------

 --------------
 Gaussian input
 --------------
 Symbolic Z-matrix:
 Charge =  0 Multiplicity = 1

                         Standard orientation:
 ---------------------------------------------------------------------
 Center     Atomic      Atomic             Coordinates (Angstroms)
 Number     Number       Type             X           Y           Z
 ---------------------------------------------------------------------
      1          8           0        0.000000    0.100788    0.000000
      2          1           0        0.844123   -0.354336    0.000000
      3          1           0       -0.844123   -0.451967    0.000000
 ---------------------------------------------------------------------

 SCF Done:  E(RHF) =  -76.0520004554     A.U. after   10 cycles
 E2 =    -0.2698774965D+00 EUMP2 =    -0.76321877951934D+02
 CCSD(T)
 CCSD(T)= -0.76335206700D+02

 The electronic state is 1-A'.
 Alpha  occ. eigenvalues --  -20.56461  -1.33174  -0.72658  -0.55342  -0.50364
 Alpha virt. eigenvalues --    0.02976   0.04674   0.13741   0.15756   0.16953
 Alpha virt. eigenvalues --    0.17993   0.22988   0.24152   0.25993   0.31484
 Alpha virt. eigenvalues --    0.32070   0.36334   0.42759   0.46322   0.60814

 Mulliken charges:
               1
     1  O   -0.485199
     2  H    0.223298
     3  H    0.261901
 Sum of Mulliken charges =  -0.00000

 Dipole moment (field-independent basis, Debye):
    X=              0.0113    Y=             -1.7539    Z=              0.0000  Tot=              1.7540
 Quadrupole moment (field-independent basis, Debye-Ang):
   XX=             -3.5583   YY=             -6.6778   ZZ=             -7.6487
   XY=              0.2011   XZ=              0.0000   YZ=              0.0000

 3268567\CCSD=-76.3263524\CCSD(T)=-76.3352067\RMSD=4.254e-09\PG=CS [SG(
 Normal termination of Gaussian 16 at Wed Feb  8 13:56:43 2023.
