 Gaussian 16, Revision C.01,
 Gaussian 16:  ES64L-G16RevC.01  3-Jul-2019

 ------------------------------------
 #P wB97XD/6-311g** scf(maxcycle=200)
 ------------------------------------

 --------------
 Gaussian input
 --------------
 Symbolic Z-matrix:
 Charge =  0 Multiplicity = 1

                         Standard orientation:
 ---------------------------------------------------------------------
 Center     Atomic      Atomic             Coordinates (Angstroms)
 Number     Number       Type             X           Y           Z
 ---------------------------------------------------------------------
      1          8           0        0.000000    0.000000    0.106628
      2          1           0        0.000000    0.797147   -0.426512
      3          1           0       -0.000000   -0.797147   -0.426512
 ---------------------------------------------------------------------

 SCF Done:  E(RwB97XD) =  -76.4217230211     A.U. after   12 cycles

 The electronic state is 1-A1.
 Alpha  occ. eigenvalues --  -19.22159  -1.09642  -0.62327  -0.44702  -0.38392
 Alpha virt. eigenvalues --    0.12050   0.19250   0.48130   0.48486   0.85014
 Alpha virt. eigenvalues --    0.85644   0.94768   1.15104   1.32837   1.44980
 Alpha virt. eigenvalues --    1.58787   1.69203   2.06084   2.11875   2.42502

 Mulliken charges:
               1
     1  O   -0.516504
     2  H    0.258252
     3  H    0.258252
 Sum of Mulliken charges =  -0.00000

 Dipole moment (field-independent basis, Debye):
    X=             -0.0000    Y=              0.0000    Z=             -1.9778  Tot=              1.9778
 Quadrupole moment (field-independent basis, Debye-Ang):
   XX=             -7.1792   YY=             -3.8713   ZZ=             -6.2376
   XY=              0.0000   XZ=              0.0000   YZ=             -0.0000

 Normal termination of Gaussian 16 at Wed Feb  8 14:41:38 2023.
