 Gaussian 16, Revision C.01,
 Gaussian 16:  ES64L-G16RevC.01  3-Jul-2019

 -----------------------------------
 #P HF/aug-cc-pVDZ scf(maxcycle=200)
 -----------------------------------

 --------------
 Gaussian input
 --------------
 Symbolic Z-matrix:
 Charge =  0 Multiplicity = 1

                         Standard orientation:
 ---------------------------------------------------------------------
 Center     Atomic      Atomic             Coordinates (Angstroms)
 Number     Number       Type             X           Y           Z
 ---------------------------------------------------------------------
      1          8           0        0.000000    0.133907   -0.000000
      2          1           0        0.650757   -0.570505   -0.000000
      3          1           0       -0.650757   -0.500755    0.000000
 ---------------------------------------------------------------------

 SCF Done:  E(RHF) =  -76.0308657661     A.U. after   10 cycles

 The electronic state is 1-A'.
 Alpha  occ. eigenvalues --  -20.57922  -1.38350  -0.69623  -0.62259  -0.51571
 Alpha virt. eigenvalues --    0.03416   0.05944   0.17104   0.19754   0.22416
 Alpha virt. eigenvalues --    0.23506   0.29121   0.36028   0.37993   0.39609
 Alpha virt. eigenvalues --    0.41621   0.55770   0.64513   0.66042   0.79184

 Mulliken charges:
               1
     1  O   -0.239331
     2  H    0.144443
     3  H    0.094888
 Sum of Mulliken charges =  -0.00000

 Dipole moment (field-independent basis, Debye):
    X=             -0.0315    Y=             -2.2188    Z=             -0.0000  Tot=              2.2190
 Quadrupole moment (field-independent basis, Debye-Ang):
   XX=             -5.0130   YY=             -5.7729   ZZ=             -7.5065
   XY=             -0.0901   XZ=             -0.0000   YZ=             -0.0000

 Normal termination of Gaussian 16 at Mon Feb 20 10:27:35 2023.
