 Gaussian 16, Revision C.01,
 Gaussian 16:  ES64L-G16RevC.01  3-Jul-2019

 -----------------------------------
 #P HF/aug-cc-pVDZ scf(maxcycle=200)
 -----------------------------------

 --------------
 Gaussian input
 --------------
 Symbolic Z-matrix:
 Charge =  0 Multiplicity = 1

                         Standard orientation:
 ---------------------------------------------------------------------
 Center     Atomic      Atomic             Coordinates (Angstroms)
 Number     Number       Type             X           Y           Z
 ---------------------------------------------------------------------
      1          8           0        0.000000    0.125966    0.000000
      2          1           0        0.755426   -0.464807    0.000000
      3          1           0       -0.755426   -0.542923    0.000000
 ---------------------------------------------------------------------

 SCF Done:  E(RHF) =  -76.0370575935     A.U. after   10 cycles

 The electronic state is 1-A'.
 Alpha  occ. eigenvalues --  -20.58342  -1.34663  -0.69739  -0.58818  -0.50857
 Alpha virt. eigenvalues --    0.03457   0.05815   0.17394   0.19838   0.22069
 Alpha virt. eigenvalues --    0.23358   0.28053   0.33469   0.38590   0.39256
 Alpha virt. eigenvalues --    0.42422   0.53933   0.63744   0.65886   0.79116

 Mulliken charges:
               1
     1  O   -0.347827
     2  H    0.147133
     3  H    0.200694
 Sum of Mulliken charges =  -0.00000

 Dipole moment (field-independent basis, Debye):
    X=              0.0257    Y=             -2.0859    Z=              0.0000  Tot=              2.0860
 Quadrupole moment (field-independent basis, Debye-Ang):
   XX=             -4.4075   YY=             -6.1417   ZZ=             -7.6439
   XY=              0.1271   XZ=              0.0000   YZ=              0.0000

 Normal termination of Gaussian 16 at Mon Feb 20 10:16:18 2023.
