 Gaussian 16, Revision C.01,
 Gaussian 16:  ES64L-G16RevC.01  3-Jul-2019

 ----------------------------------------
 #P PBE1PBE/aug-cc-pVDZ scf(maxcycle=200)
 ----------------------------------------

 --------------
 Gaussian input
 --------------
 Symbolic Z-matrix:
 Charge =  0 Multiplicity = 1

                         Standard orientation:
 ---------------------------------------------------------------------
 Center     Atomic      Atomic             Coordinates (Angstroms)
 Number     Number       Type             X           Y           Z
 ---------------------------------------------------------------------
      1          8           0        0.000000    0.112321    0.000000
      2          1           0        0.807194   -0.405481    0.000000
      3          1           0       -0.807194   -0.493087    0.000000
 ---------------------------------------------------------------------

 SCF Done:  E(RPBE1PBE) =  -76.3568618992     A.U. after    9 cycles

 The electronic state is 1-A'.
 Alpha  occ. eigenvalues --  -19.23175  -1.03406  -0.55220  -0.39779  -0.32984
 Alpha virt. eigenvalues --   -0.01383   0.03087   0.11152   0.13185   0.13761
 Alpha virt. eigenvalues --    0.16048   0.19166   0.22772   0.28552   0.31273
 Alpha virt. eigenvalues --    0.33967   0.44243   0.50687   0.53425   0.64859

 Mulliken charges:
               1
     1  O   -0.289769
     2  H    0.118067
     3  H    0.171702
 Sum of Mulliken charges =  -0.00000

 Dipole moment (field-independent basis, Debye):
    X=              0.0199    Y=             -1.7870    Z=              0.0000  Tot=              1.7871
 Quadrupole moment (field-independent basis, Debye-Ang):
   XX=             -4.1651   YY=             -6.6214   ZZ=             -7.8224
   XY=              0.1596   XZ=              0.0000   YZ=              0.0000

 Normal termination of Gaussian 16 at Mon Mar 20 17:34:50 2023.
