 Gaussian 16, Revision C.01,
 Gaussian 16:  ES64L-G16RevC.01  3-Jul-2019

 ----------------------------------------
 #P CCSD(T)/aug-cc-pVTZ scf(maxcycle=200)
 ----------------------------------------

 --------------
 Gaussian input
 --------------
 Symbolic Z-matrix:
 Charge =  0 Multiplicity = 1

                         Standard orientation:
 ---------------------------------------------------------------------
 Center     Atomic      Atomic             Coordinates (Angstroms)
 Number     Number       Type             X           Y           Z
 ---------------------------------------------------------------------
      1          8           0        0.000000    0.103931   -0.000000
      2          1           0        0.775189   -0.460659   -0.000000
      3          1           0       -0.775189   -0.370792    0.000000
 ---------------------------------------------------------------------

 SCF Done:  E(RHF) =  -76.0587347977     A.U. after   10 cycles
 E2 =    -0.2661090395D+00 EUMP2 =    -0.76324843837239D+02
 CCSD(T)
 CCSD(T)= -0.76338161758D+02

 The electronic state is 1-A'.
 Alpha  occ. eigenvalues --  -20.55936  -1.36085  -0.74625  -0.57371  -0.51014
 Alpha virt. eigenvalues --    0.03016   0.04731   0.13694   0.15581   0.17374
 Alpha virt. eigenvalues --    0.18116   0.23186   0.24495   0.26274   0.31038
 Alpha virt. eigenvalues --    0.31730   0.36525   0.44136   0.47120   0.60688

 Mulliken charges:
               1
     1  O   -0.395052
     2  H    0.224003
     3  H    0.171049
 Sum of Mulliken charges =  -0.00000

 Dipole moment (field-independent basis, Debye):
    X=             -0.0172    Y=             -1.8300    Z=              0.0000  Tot=              1.8301
 Quadrupole moment (field-independent basis, Debye-Ang):
   XX=             -3.9755   YY=             -6.4497   ZZ=             -7.5167
   XY=             -0.1658   XZ=             -0.0000   YZ=              0.0000

 .3302475\CCSD=-76.329798\CCSD(T)=-76.3381618\RMSD=2.643e-09\PG=CS [SG(
 Normal termination of Gaussian 16 at Wed Feb  8 13:52:52 2023.
