 Gaussian 16, Revision C.01,
 Gaussian 16:  ES64L-G16RevC.01  3-Jul-2019

 ----------------------------------------
 #P PBE1PBE/aug-cc-pVDZ scf(maxcycle=200)
 ----------------------------------------

 --------------
 Gaussian input
 --------------
 Symbolic Z-matrix:
 Charge =  0 Multiplicity = 1

                         Standard orientation:
 ---------------------------------------------------------------------
 Center     Atomic      Atomic             Coordinates (Angstroms)
 Number     Number       Type             X           Y           Z
 ---------------------------------------------------------------------
      1          8           0        0.000000   -0.000000    0.130279
      2          1           0        0.000000    0.634007   -0.521116
      3          1           0       -0.000000   -0.634007   -0.521116
 ---------------------------------------------------------------------

 SCF Done:  E(RPBE1PBE) =  -76.3448218158     A.U. after    8 cycles

 The electronic state is 1-A1.
 Alpha  occ. eigenvalues --  -19.22763  -1.08681  -0.53695  -0.44723  -0.34062
 Alpha virt. eigenvalues --   -0.01108   0.03628   0.11089   0.13215   0.15158
 Alpha virt. eigenvalues --    0.17740   0.19249   0.26934   0.28675   0.30545
 Alpha virt. eigenvalues --    0.32010   0.47676   0.52431   0.55711   0.62327

 Mulliken charges:
               1
     1  O   -0.113193
     2  H    0.056596
     3  H    0.056596
 Sum of Mulliken charges =   0.00000

 Dipole moment (field-independent basis, Debye):
    X=             -0.0000    Y=             -0.0000    Z=             -2.0523  Tot=              2.0523
 Quadrupole moment (field-independent basis, Debye-Ang):
   XX=             -7.5932   YY=             -5.1827   ZZ=             -5.9543
   XY=              0.0000   XZ=              0.0000   YZ=              0.0000

 Normal termination of Gaussian 16 at Mon Mar 20 17:32:58 2023.
