 Gaussian 16, Revision C.01,
 Gaussian 16:  ES64L-G16RevC.01  3-Jul-2019

 ------------------------------------
 #P wB97XD/6-311g** scf(maxcycle=200)
 ------------------------------------

 --------------
 Gaussian input
 --------------
 Symbolic Z-matrix:
 Charge =  0 Multiplicity = 1

                         Standard orientation:
 ---------------------------------------------------------------------
 Center     Atomic      Atomic             Coordinates (Angstroms)
 Number     Number       Type             X           Y           Z
 ---------------------------------------------------------------------
      1          8           0        0.000000    0.145771    0.000000
      2          1           0        0.660689   -0.616837   -0.000000
      3          1           0       -0.660689   -0.549334   -0.000000
 ---------------------------------------------------------------------

 SCF Done:  E(RwB97XD) =  -76.4117669781     A.U. after   12 cycles

 The electronic state is 1-A'.
 Alpha  occ. eigenvalues --  -19.23953  -1.10995  -0.56199  -0.50212  -0.39029
 Alpha virt. eigenvalues --    0.10618   0.18686   0.42944   0.51947   0.85200
 Alpha virt. eigenvalues --    0.86305   0.95812   1.11620   1.18915   1.41876
 Alpha virt. eigenvalues --    1.42933   1.85417   1.94470   2.14461   2.42508

 Mulliken charges:
               1
     1  O   -0.423664
     2  H    0.210931
     3  H    0.212733
 Sum of Mulliken charges =  -0.00000

 Dipole moment (field-independent basis, Debye):
    X=             -0.0487    Y=             -2.3361    Z=             -0.0000  Tot=              2.3366
 Quadrupole moment (field-independent basis, Debye-Ang):
   XX=             -5.0793   YY=             -5.4827   ZZ=             -7.2085
   XY=             -0.0702   XZ=             -0.0000   YZ=              0.0000

 Normal termination of Gaussian 16 at Wed Feb  8 14:42:32 2023.
