 Gaussian 16, Revision C.01,
 Gaussian 16:  ES64L-G16RevC.01  3-Jul-2019

 -----------------------------------
 #P HF/aug-cc-pVDZ scf(maxcycle=200)
 -----------------------------------

 --------------
 Gaussian input
 --------------
 Symbolic Z-matrix:
 Charge =  0 Multiplicity = 1

                         Standard orientation:
 ---------------------------------------------------------------------
 Center     Atomic      Atomic             Coordinates (Angstroms)
 Number     Number       Type             X           Y           Z
 ---------------------------------------------------------------------
      1          8           0       -0.000000    0.000000    0.132472
      2          1           0        0.000000    0.622542   -0.529889
      3          1           0       -0.000000   -0.622542   -0.529889
 ---------------------------------------------------------------------

 SCF Done:  E(RHF) =  -76.0260988950     A.U. after    9 cycles

 The electronic state is 1-A1.
 Alpha  occ. eigenvalues --  -20.57521  -1.40023  -0.70314  -0.63246  -0.51829
 Alpha virt. eigenvalues --    0.03434   0.05969   0.17020   0.19671   0.22543
 Alpha virt. eigenvalues --    0.23449   0.29880   0.36589   0.38123   0.39942
 Alpha virt. eigenvalues --    0.41706   0.56284   0.65062   0.65730   0.80577

 Mulliken charges:
               1
     1  O   -0.190683
     2  H    0.095341
     3  H    0.095341
 Sum of Mulliken charges =  -0.00000

 Dipole moment (field-independent basis, Debye):
    X=             -0.0000    Y=             -0.0000    Z=             -2.2210  Tot=              2.2210
 Quadrupole moment (field-independent basis, Debye-Ang):
   XX=             -7.4444   YY=             -5.1135   ZZ=             -5.7230
   XY=              0.0000   XZ=              0.0000   YZ=             -0.0000

 Normal termination of Gaussian 16 at Mon Feb 20 10:14:38 2023.
