 Gaussian 16, Revision C.01,
 Gaussian 16:  ES64L-G16RevC.01  3-Jul-2019

 ---------------------------------
 #P B3LYP/6-31g* scf(maxcycle=200)
 ---------------------------------

 --------------
 Gaussian input
 --------------
 Symbolic Z-matrix:
 Charge =  0 Multiplicity = 1

                         Standard orientation:
 ---------------------------------------------------------------------
 Center     Atomic      Atomic             Coordinates (Angstroms)
 Number     Number       Type             X           Y           Z
 ---------------------------------------------------------------------
      1          8           0        0.000000    0.136159   -0.000000
      2          1           0        0.639004   -0.578933    0.000000
      3          1           0       -0.639004   -0.510336   -0.000000
 ---------------------------------------------------------------------

 SCF Done:  E(RB3LYP) =  -76.3948665677     A.U. after    9 cycles

 The electronic state is 1-A'.
 Alpha  occ. eigenvalues --  -19.13974  -1.03293  -0.49530  -0.41061  -0.29921
 Alpha virt. eigenvalues --    0.06310   0.15871   0.73747   0.87659   0.88686
 Alpha virt. eigenvalues --    0.95416   1.06847   1.25445   1.68763   1.75052
 Alpha virt. eigenvalues --    1.75576   2.38452   2.56098   3.53260

 Mulliken charges:
               1
     1  O   -0.752118
     2  H    0.371215
     3  H    0.380904
 Sum of Mulliken charges =   0.00000

 Dipole moment (field-independent basis, Debye):
    X=             -0.0546    Y=             -2.3227    Z=              0.0000  Tot=              2.3233
 Quadrupole moment (field-independent basis, Debye-Ang):
   XX=             -5.0759   YY=             -5.5387   ZZ=             -7.1419
   XY=             -0.0654   XZ=             -0.0000   YZ=              0.0000

 Normal termination of Gaussian 16 at Wed Feb  8 14:50:39 2023.
