 Gaussian 16, Revision C.01,
 Gaussian 16:  ES64L-G16RevC.01  3-Jul-2019

 ---------------------------------
 #P B3LYP/6-31g* scf(maxcycle=200)
 ---------------------------------

 --------------
 Gaussian input
 --------------
 Symbolic Z-matrix:
 Charge =  0 Multiplicity = 1

                         Standard orientation:
 ---------------------------------------------------------------------
 Center     Atomic      Atomic             Coordinates (Angstroms)
 Number     Number       Type             X           Y           Z
 ---------------------------------------------------------------------
      1          8           0        0.000000    0.101356    0.000000
      2          1           0        0.810186   -0.500041   -0.000000
      3          1           0       -0.810186   -0.310808    0.000000
 ---------------------------------------------------------------------

 SCF Done:  E(RB3LYP) =  -76.3998279868     A.U. after    9 cycles

 The electronic state is 1-A'.
 Alpha  occ. eigenvalues --  -19.12884  -0.99338  -0.54048  -0.34702  -0.28753
 Alpha virt. eigenvalues --    0.06181   0.15648   0.78409   0.87017   0.89406
 Alpha virt. eigenvalues --    0.89408   1.08397   1.16272   1.73416   1.76508
 Alpha virt. eigenvalues --    1.79366   2.30345   2.59868   3.57950

 Mulliken charges:
               1
     1  O   -0.797496
     2  H    0.394103
     3  H    0.403393
 Sum of Mulliken charges =   0.00000

 Dipole moment (field-independent basis, Debye):
    X=             -0.0815    Y=             -1.8798    Z=             -0.0000  Tot=              1.8816
 Quadrupole moment (field-independent basis, Debye-Ang):
   XX=             -3.7724   YY=             -6.2561   ZZ=             -7.1798
   XY=             -0.3306   XZ=             -0.0000   YZ=              0.0000

 Normal termination of Gaussian 16 at Wed Feb  8 14:52:05 2023.
