 Gaussian 16, Revision C.01,
 Gaussian 16:  ES64L-G16RevC.01  3-Jul-2019

 ----------------------------------------
 #P PBE1PBE/aug-cc-pVDZ scf(maxcycle=200)
 ----------------------------------------

 --------------
 Gaussian input
 --------------
 Symbolic Z-matrix:
 Charge =  0 Multiplicity = 1

                         Standard orientation:
 ---------------------------------------------------------------------
 Center     Atomic      Atomic             Coordinates (Angstroms)
 Number     Number       Type             X           Y           Z
 ---------------------------------------------------------------------
      1          8           0        0.000000    0.101356    0.000000
      2          1           0        0.810186   -0.310808    0.000000
      3          1           0       -0.810186   -0.500041    0.000000
 ---------------------------------------------------------------------

 SCF Done:  E(RPBE1PBE) =  -76.3516481889     A.U. after    9 cycles

 The electronic state is 1-A'.
 Alpha  occ. eigenvalues --  -19.22506  -1.04238  -0.57192  -0.38920  -0.33080
 Alpha virt. eigenvalues --   -0.01182   0.03144   0.11260   0.13064   0.13555
 Alpha virt. eigenvalues --    0.16453   0.19992   0.22540   0.28426   0.32896
 Alpha virt. eigenvalues --    0.35330   0.44030   0.50746   0.54584   0.66851

 Mulliken charges:
               1
     1  O   -0.251952
     2  H    0.069510
     3  H    0.182442
 Sum of Mulliken charges =   0.00000

 Dipole moment (field-independent basis, Debye):
    X=              0.0331    Y=             -1.6820    Z=              0.0000  Tot=              1.6824
 Quadrupole moment (field-independent basis, Debye-Ang):
   XX=             -4.0116   YY=             -6.7383   ZZ=             -7.7729
   XY=              0.3651   XZ=              0.0000   YZ=              0.0000

 Normal termination of Gaussian 16 at Mon Mar 20 17:33:48 2023.
