 Gaussian 16, Revision C.01,
 Gaussian 16:  ES64L-G16RevC.01  3-Jul-2019

 ----------------------------------------
 #P CCSD(T)/aug-cc-pVTZ scf(maxcycle=200)
 ----------------------------------------

 --------------
 Gaussian input
 --------------
 Symbolic Z-matrix:
 Charge =  0 Multiplicity = 1

                         Standard orientation:
 ---------------------------------------------------------------------
 Center     Atomic      Atomic             Coordinates (Angstroms)
 Number     Number       Type             X           Y           Z
 ---------------------------------------------------------------------
      1          8           0        0.000000    0.000000    0.113855
      2          1           0       -0.000000    0.708667   -0.455419
      3          1           0       -0.000000   -0.708667   -0.455419
 ---------------------------------------------------------------------

 SCF Done:  E(RHF) =  -76.0580940372     A.U. after   10 cycles
 E2 =    -0.2647205454D+00 EUMP2 =    -0.76322814582667D+02
 CCSD(T)
 CCSD(T)= -0.76336112767D+02

 The electronic state is 1-A1.
 Alpha  occ. eigenvalues --  -20.55907  -1.38185  -0.74077  -0.59831  -0.51522
 Alpha virt. eigenvalues --    0.02986   0.04798   0.13567   0.15640   0.17687
 Alpha virt. eigenvalues --    0.18311   0.23127   0.24785   0.26648   0.30116
 Alpha virt. eigenvalues --    0.31091   0.36843   0.44800   0.47484   0.60220

 Mulliken charges:
               1
     1  O   -0.352722
     2  H    0.176361
     3  H    0.176361
 Sum of Mulliken charges =  -0.00000

 Dipole moment (field-independent basis, Debye):
    X=             -0.0000    Y=             -0.0000    Z=             -1.9740  Tot=              1.9740
 Quadrupole moment (field-independent basis, Debye-Ang):
   XX=             -7.4411   YY=             -4.4333   ZZ=             -6.1518
   XY=              0.0000   XZ=              0.0000   YZ=              0.0000

 3283769\CCSD=-76.3279477\CCSD(T)=-76.3361128\RMSD=2.284e-09\PG=C02V [C
 Normal termination of Gaussian 16 at Wed Feb  8 13:47:42 2023.
