 Gaussian 16, Revision C.01,
 Gaussian 16:  ES64L-G16RevC.01  3-Jul-2019

 ------------------------------
 #P HF/6-31g* scf(maxcycle=200)
 ------------------------------

 --------------
 Gaussian input
 --------------
 Symbolic Z-matrix:
 Charge =  0 Multiplicity = 1

                         Standard orientation:
 ---------------------------------------------------------------------
 Center     Atomic      Atomic             Coordinates (Angstroms)
 Number     Number       Type             X           Y           Z
 ---------------------------------------------------------------------
      1          8           0        0.000000    0.092742   -0.000000
      2          1           0        0.834542   -0.474374   -0.000000
      3          1           0       -0.834542   -0.267564    0.000000
 ---------------------------------------------------------------------

 SCF Done:  E(RHF) =  -75.9974207183     A.U. after   10 cycles

 The electronic state is 1-A'.
 Alpha  occ. eigenvalues --  -20.54852  -1.32865  -0.73449  -0.53404  -0.48979
 Alpha virt. eigenvalues --    0.20700   0.30572   1.02543   1.13757   1.17235
 Alpha virt. eigenvalues --    1.17362   1.38269   1.41061   2.02081   2.07017
 Alpha virt. eigenvalues --    2.08898   2.66279   2.91087   4.00064

 Mulliken charges:
               1
     1  O   -0.903762
     2  H    0.451969
     3  H    0.451793
 Sum of Mulliken charges =  -0.00000

 Dipole moment (field-independent basis, Debye):
    X=             -0.0548    Y=             -1.8847    Z=             -0.0000  Tot=              1.8855
 Quadrupole moment (field-independent basis, Debye-Ang):
   XX=             -3.3560   YY=             -6.3858   ZZ=             -7.2316
   XY=             -0.4228   XZ=             -0.0000   YZ=              0.0000

 Normal termination of Gaussian 16 at Wed Feb  8 15:07:03 2023.
