 Gaussian 16, Revision C.01,
 Gaussian 16:  ES64L-G16RevC.01  3-Jul-2019

 ----------------------------------------
 #P PBE1PBE/aug-cc-pVDZ scf(maxcycle=200)
 ----------------------------------------

 --------------
 Gaussian input
 --------------
 Symbolic Z-matrix:
 Charge =  0 Multiplicity = 1

                         Standard orientation:
 ---------------------------------------------------------------------
 Center     Atomic      Atomic             Coordinates (Angstroms)
 Number     Number       Type             X           Y           Z
 ---------------------------------------------------------------------
      1          8           0       -0.000000    0.000000    0.103691
      2          1           0       -0.000000    0.746651   -0.414762
      3          1           0       -0.000000   -0.746651   -0.414762
 ---------------------------------------------------------------------

 SCF Done:  E(RPBE1PBE) =  -76.3536271918     A.U. after    8 cycles

 The electronic state is 1-A1.
 Alpha  occ. eigenvalues --  -19.22026  -1.06707  -0.58399  -0.40494  -0.33649
 Alpha virt. eigenvalues --   -0.00764   0.03416   0.11472   0.13000   0.14813
 Alpha virt. eigenvalues --    0.16970   0.20675   0.23699   0.29287   0.32421
 Alpha virt. eigenvalues --    0.35028   0.45563   0.53563   0.54841   0.67018

 Mulliken charges:
               1
     1  O   -0.121537
     2  H    0.060768
     3  H    0.060768
 Sum of Mulliken charges =   0.00000

 Dipole moment (field-independent basis, Debye):
    X=             -0.0000    Y=              0.0000    Z=             -1.7526  Tot=              1.7526
 Quadrupole moment (field-independent basis, Debye-Ang):
   XX=             -7.6332   YY=             -4.3453   ZZ=             -6.5585
   XY=              0.0000   XZ=              0.0000   YZ=              0.0000

 Normal termination of Gaussian 16 at Mon Mar 20 17:33:07 2023.
