 Gaussian 16, Revision C.01,
 Gaussian 16:  ES64L-G16RevC.01  3-Jul-2019

 ----------------------------------------
 #P PBE1PBE/aug-cc-pVDZ scf(maxcycle=200)
 ----------------------------------------

 --------------
 Gaussian input
 --------------
 Symbolic Z-matrix:
 Charge =  0 Multiplicity = 1

                         Standard orientation:
 ---------------------------------------------------------------------
 Center     Atomic      Atomic             Coordinates (Angstroms)
 Number     Number       Type             X           Y           Z
 ---------------------------------------------------------------------
      1          8           0        0.000000    0.101210   -0.000000
      2          1           0        0.784070   -0.450981    0.000000
      3          1           0       -0.784070   -0.358698   -0.000000
 ---------------------------------------------------------------------

 SCF Done:  E(RPBE1PBE) =  -76.3551001297     A.U. after    8 cycles

 The electronic state is 1-A'.
 Alpha  occ. eigenvalues --  -19.22261  -1.05310  -0.57982  -0.39523  -0.33343
 Alpha virt. eigenvalues --   -0.00927   0.03277   0.11444   0.13024   0.14250
 Alpha virt. eigenvalues --    0.16663   0.20374   0.22895   0.28817   0.32834
 Alpha virt. eigenvalues --    0.35303   0.44686   0.52454   0.54566   0.67063

 Mulliken charges:
               1
     1  O   -0.190731
     2  H    0.123696
     3  H    0.067036
 Sum of Mulliken charges =  -0.00000

 Dipole moment (field-independent basis, Debye):
    X=             -0.0186    Y=             -1.7016    Z=              0.0000  Tot=              1.7017
 Quadrupole moment (field-independent basis, Debye-Ang):
   XX=             -4.1374   YY=             -6.6872   ZZ=             -7.7064
   XY=             -0.1719   XZ=              0.0000   YZ=             -0.0000

 Normal termination of Gaussian 16 at Mon Mar 20 17:34:10 2023.
