 Gaussian 16, Revision C.01,
 Gaussian 16:  ES64L-G16RevC.01  3-Jul-2019

 -----------------------------------
 #P HF/aug-cc-pVDZ scf(maxcycle=200)
 -----------------------------------

 --------------
 Gaussian input
 --------------
 Symbolic Z-matrix:
 Charge =  0 Multiplicity = 1

                         Standard orientation:
 ---------------------------------------------------------------------
 Center     Atomic      Atomic             Coordinates (Angstroms)
 Number     Number       Type             X           Y           Z
 ---------------------------------------------------------------------
      1          8           0        0.000000    0.000000    0.118732
      2          1           0       -0.000000    0.688368   -0.474927
      3          1           0       -0.000000   -0.688368   -0.474927
 ---------------------------------------------------------------------

 SCF Done:  E(RHF) =  -76.0368421640     A.U. after   10 cycles

 The electronic state is 1-A1.
 Alpha  occ. eigenvalues --  -20.57112  -1.38838  -0.73298  -0.60725  -0.51531
 Alpha virt. eigenvalues --    0.03562   0.05866   0.17190   0.19505   0.22581
 Alpha virt. eigenvalues --    0.23154   0.30185   0.34781   0.39266   0.40023
 Alpha virt. eigenvalues --    0.43265   0.55210   0.65732   0.65870   0.82531

 Mulliken charges:
               1
     1  O   -0.181378
     2  H    0.090689
     3  H    0.090689
 Sum of Mulliken charges =   0.00000

 Dipole moment (field-independent basis, Debye):
    X=             -0.0000    Y=             -0.0000    Z=             -2.0515  Tot=              2.0515
 Quadrupole moment (field-independent basis, Debye-Ang):
   XX=             -7.4607   YY=             -4.6296   ZZ=             -6.0617
   XY=              0.0000   XZ=              0.0000   YZ=              0.0000

 Normal termination of Gaussian 16 at Mon Feb 20 10:14:39 2023.
