 Gaussian 16, Revision C.01,
 Gaussian 16:  ES64L-G16RevC.01  3-Jul-2019

 ------------------------------
 #P HF/6-31g* scf(maxcycle=200)
 ------------------------------

 --------------
 Gaussian input
 --------------
 Symbolic Z-matrix:
 Charge =  0 Multiplicity = 1

                         Standard orientation:
 ---------------------------------------------------------------------
 Center     Atomic      Atomic             Coordinates (Angstroms)
 Number     Number       Type             X           Y           Z
 ---------------------------------------------------------------------
      1          8           0        0.000000    0.106621   -0.000000
      2          1           0        0.766067   -0.470286   -0.000000
      3          1           0       -0.766067   -0.382686    0.000000
 ---------------------------------------------------------------------

 SCF Done:  E(RHF) =  -76.0082522579     A.U. after   10 cycles

 The electronic state is 1-A'.
 Alpha  occ. eigenvalues --  -20.55233  -1.34963  -0.73111  -0.56284  -0.49727
 Alpha virt. eigenvalues --    0.21594   0.31048   1.05876   1.13041   1.16932
 Alpha virt. eigenvalues --    1.17736   1.39529   1.41918   2.02297   2.03235
 Alpha virt. eigenvalues --    2.07091   2.65840   2.99251   3.99461

 Mulliken charges:
               1
     1  O   -0.877557
     2  H    0.438370
     3  H    0.439186
 Sum of Mulliken charges =   0.00000

 Dipole moment (field-independent basis, Debye):
    X=             -0.0353    Y=             -2.0973    Z=              0.0000  Tot=              2.0976
 Quadrupole moment (field-independent basis, Debye-Ang):
   XX=             -3.9213   YY=             -6.1135   ZZ=             -7.1770
   XY=             -0.1512   XZ=             -0.0000   YZ=              0.0000

 Normal termination of Gaussian 16 at Wed Feb  8 15:05:50 2023.
