 Gaussian 16, Revision C.01,
 Gaussian 16:  ES64L-G16RevC.01  3-Jul-2019

 ----------------------------------------
 #P PBE1PBE/aug-cc-pVDZ scf(maxcycle=200)
 ----------------------------------------

 --------------
 Gaussian input
 --------------
 Symbolic Z-matrix:
 Charge =  0 Multiplicity = 1

                         Standard orientation:
 ---------------------------------------------------------------------
 Center     Atomic      Atomic             Coordinates (Angstroms)
 Number     Number       Type             X           Y           Z
 ---------------------------------------------------------------------
      1          8           0        0.000000    0.131616    0.000000
      2          1           0        0.662310   -0.490981    0.000000
      3          1           0       -0.662310   -0.561945    0.000000
 ---------------------------------------------------------------------

 SCF Done:  E(RPBE1PBE) =  -76.3507327309     A.U. after    8 cycles

 The electronic state is 1-A'.
 Alpha  occ. eigenvalues --  -19.23128  -1.07215  -0.53254  -0.44078  -0.33809
 Alpha virt. eigenvalues --   -0.01251   0.03513   0.11035   0.13243   0.14870
 Alpha virt. eigenvalues --    0.17348   0.18814   0.26307   0.28546   0.30150
 Alpha virt. eigenvalues --    0.31942   0.47101   0.51657   0.55395   0.61747

 Mulliken charges:
               1
     1  O   -0.162220
     2  H    0.058897
     3  H    0.103323
 Sum of Mulliken charges =  -0.00000

 Dipole moment (field-independent basis, Debye):
    X=              0.0309    Y=             -2.0437    Z=              0.0000  Tot=              2.0439
 Quadrupole moment (field-independent basis, Debye-Ang):
   XX=             -5.0861   YY=             -6.0088   ZZ=             -7.6584
   XY=              0.0930   XZ=              0.0000   YZ=              0.0000

 Normal termination of Gaussian 16 at Mon Mar 20 17:57:15 2023.
