 Gaussian 16, Revision C.01,
 Gaussian 16:  ES64L-G16RevC.01  3-Jul-2019

 ----------------------------------------
 #P PBE1PBE/aug-cc-pVDZ scf(maxcycle=200)
 ----------------------------------------

 --------------
 Gaussian input
 --------------
 Symbolic Z-matrix:
 Charge =  0 Multiplicity = 1

                         Standard orientation:
 ---------------------------------------------------------------------
 Center     Atomic      Atomic             Coordinates (Angstroms)
 Number     Number       Type             X           Y           Z
 ---------------------------------------------------------------------
      1          8           0       -0.000000    0.141071   -0.000000
      2          1           0        0.685666   -0.599161    0.000000
      3          1           0       -0.685666   -0.529409    0.000000
 ---------------------------------------------------------------------

 SCF Done:  E(RPBE1PBE) =  -76.3519663853     A.U. after    9 cycles

 The electronic state is 1-A'.
 Alpha  occ. eigenvalues --  -19.24009  -1.05000  -0.51092  -0.44004  -0.33452
 Alpha virt. eigenvalues --   -0.01682   0.03308   0.10734   0.13347   0.14409
 Alpha virt. eigenvalues --    0.15975   0.18440   0.25897   0.27496   0.29829
 Alpha virt. eigenvalues --    0.30984   0.46462   0.49974   0.53943   0.60775

 Mulliken charges:
               1
     1  O   -0.264258
     2  H    0.153914
     3  H    0.110344
 Sum of Mulliken charges =   0.00000

 Dipole moment (field-independent basis, Debye):
    X=             -0.0311    Y=             -2.0981    Z=              0.0000  Tot=              2.0983
 Quadrupole moment (field-independent basis, Debye-Ang):
   XX=             -5.1248   YY=             -5.9519   ZZ=             -7.7765
   XY=             -0.0907   XZ=             -0.0000   YZ=             -0.0000

 Normal termination of Gaussian 16 at Wed Mar 29 21:53:22 2023.
