 Gaussian 16, Revision C.01,
 Gaussian 16:  ES64L-G16RevC.01  3-Jul-2019

 -----------------------------------
 #P HF/aug-cc-pVDZ scf(maxcycle=200)
 -----------------------------------

 --------------
 Gaussian input
 --------------
 Symbolic Z-matrix:
 Charge =  0 Multiplicity = 1

                         Standard orientation:
 ---------------------------------------------------------------------
 Center     Atomic      Atomic             Coordinates (Angstroms)
 Number     Number       Type             X           Y           Z
 ---------------------------------------------------------------------
      1          8           0        0.000000    0.129284   -0.000000
      2          1           0        0.673660   -0.553258    0.000000
      3          1           0       -0.673660   -0.481014    0.000000
 ---------------------------------------------------------------------

 SCF Done:  E(RHF) =  -76.0346678638     A.U. after   10 cycles

 The electronic state is 1-A'.
 Alpha  occ. eigenvalues --  -20.57785  -1.37973  -0.70578  -0.61433  -0.51469
 Alpha virt. eigenvalues --    0.03461   0.05910   0.17167   0.19702   0.22434
 Alpha virt. eigenvalues --    0.23407   0.29212   0.35414   0.38609   0.39393
 Alpha virt. eigenvalues --    0.42111   0.55410   0.64710   0.66098   0.79807

 Mulliken charges:
               1
     1  O   -0.236136
     2  H    0.143696
     3  H    0.092440
 Sum of Mulliken charges =   0.00000

 Dipole moment (field-independent basis, Debye):
    X=             -0.0299    Y=             -2.1625    Z=              0.0000  Tot=              2.1627
 Quadrupole moment (field-independent basis, Debye-Ang):
   XX=             -4.8441   YY=             -5.8895   ZZ=             -7.5120
   XY=             -0.1002   XZ=             -0.0000   YZ=             -0.0000

 Normal termination of Gaussian 16 at Mon Feb 20 10:15:39 2023.
