 Gaussian 16, Revision C.01,
 Gaussian 16:  ES64L-G16RevC.01  3-Jul-2019

 ---------------------------------
 #P B3LYP/6-31g* scf(maxcycle=200)
 ---------------------------------

 --------------
 Gaussian input
 --------------
 Symbolic Z-matrix:
 Charge =  0 Multiplicity = 1

                         Standard orientation:
 ---------------------------------------------------------------------
 Center     Atomic      Atomic             Coordinates (Angstroms)
 Number     Number       Type             X           Y           Z
 ---------------------------------------------------------------------
      1          8           0       -0.000000   -0.000000    0.116311
      2          1           0        0.000000    0.698624   -0.465244
      3          1           0       -0.000000   -0.698624   -0.465244
 ---------------------------------------------------------------------

 SCF Done:  E(RB3LYP) =  -76.4007749683     A.U. after    9 cycles

 The electronic state is 1-A1.
 Alpha  occ. eigenvalues --  -19.12918  -1.02911  -0.53436  -0.38312  -0.29698
 Alpha virt. eigenvalues --    0.07714   0.16831   0.78741   0.88325   0.88963
 Alpha virt. eigenvalues --    0.95798   1.08239   1.21382   1.70486   1.73565
 Alpha virt. eigenvalues --    1.76600   2.35724   2.67294   3.57646

 Mulliken charges:
               1
     1  O   -0.776539
     2  H    0.388269
     3  H    0.388269
 Sum of Mulliken charges =   0.00000

 Dipole moment (field-independent basis, Debye):
    X=             -0.0000    Y=             -0.0000    Z=             -2.1186  Tot=              2.1186
 Quadrupole moment (field-independent basis, Debye-Ang):
   XX=             -7.0852   YY=             -4.4981   ZZ=             -5.8844
   XY=              0.0000   XZ=              0.0000   YZ=              0.0000

 Normal termination of Gaussian 16 at Wed Feb  8 14:49:28 2023.
