 Gaussian 16, Revision C.01,
 Gaussian 16:  ES64L-G16RevC.01  3-Jul-2019

 ----------------------------------------
 #P PBE1PBE/aug-cc-pVDZ scf(maxcycle=200)
 ----------------------------------------

 --------------
 Gaussian input
 --------------
 Symbolic Z-matrix:
 Charge =  0 Multiplicity = 1

                         Standard orientation:
 ---------------------------------------------------------------------
 Center     Atomic      Atomic             Coordinates (Angstroms)
 Number     Number       Type             X           Y           Z
 ---------------------------------------------------------------------
      1          8           0        0.000000    0.136200    0.000000
      2          1           0        0.709801   -0.508675    0.000000
      3          1           0       -0.709801   -0.580922    0.000000
 ---------------------------------------------------------------------

 SCF Done:  E(RPBE1PBE) =  -76.3547772169     A.U. after    9 cycles

 The electronic state is 1-A'.
 Alpha  occ. eigenvalues --  -19.23874  -1.04667  -0.51923  -0.43207  -0.33366
 Alpha virt. eigenvalues --   -0.01598   0.03267   0.10848   0.13320   0.14356
 Alpha virt. eigenvalues --    0.16010   0.18474   0.25305   0.28062   0.29611
 Alpha virt. eigenvalues --    0.31445   0.46095   0.50199   0.53756   0.61456

 Mulliken charges:
               1
     1  O   -0.263209
     2  H    0.108792
     3  H    0.154417
 Sum of Mulliken charges =   0.00000

 Dipole moment (field-independent basis, Debye):
    X=              0.0294    Y=             -2.0470    Z=              0.0000  Tot=              2.0472
 Quadrupole moment (field-independent basis, Debye-Ang):
   XX=             -4.9493   YY=             -6.0729   ZZ=             -7.7838
   XY=              0.1007   XZ=              0.0000   YZ=              0.0000

 Normal termination of Gaussian 16 at Wed Mar 29 21:52:37 2023.
