 Gaussian 16, Revision C.01,
 Gaussian 16:  ES64L-G16RevC.01  3-Jul-2019

 ---------------------------------
 #P B3LYP/6-31g* scf(maxcycle=200)
 ---------------------------------

 --------------
 Gaussian input
 --------------
 Symbolic Z-matrix:
 Charge =  0 Multiplicity = 1

                         Standard orientation:
 ---------------------------------------------------------------------
 Center     Atomic      Atomic             Coordinates (Angstroms)
 Number     Number       Type             X           Y           Z
 ---------------------------------------------------------------------
      1          8           0        0.000000    0.092742    0.000000
      2          1           0        0.834542   -0.267564    0.000000
      3          1           0       -0.834542   -0.474374    0.000000
 ---------------------------------------------------------------------

 SCF Done:  E(RB3LYP) =  -76.3955661960     A.U. after    8 cycles

 The electronic state is 1-A'.
 Alpha  occ. eigenvalues --  -19.12500  -0.98850  -0.54822  -0.33526  -0.28519
 Alpha virt. eigenvalues --    0.06041   0.15792   0.76799   0.88304   0.89577
 Alpha virt. eigenvalues --    0.89908   1.09273   1.15413   1.73025   1.78083
 Alpha virt. eigenvalues --    1.80047   2.32892   2.56635   3.58765

 Mulliken charges:
               1
     1  O   -0.809953
     2  H    0.408133
     3  H    0.401821
 Sum of Mulliken charges =   0.00000

 Dipole moment (field-independent basis, Debye):
    X=              0.0737    Y=             -1.7695    Z=              0.0000  Tot=              1.7710
 Quadrupole moment (field-independent basis, Debye-Ang):
   XX=             -3.5270   YY=             -6.3834   ZZ=             -7.1796
   XY=              0.3911   XZ=              0.0000   YZ=              0.0000

 Normal termination of Gaussian 16 at Wed Feb  8 14:50:40 2023.
