 Gaussian 16, Revision C.01,
 Gaussian 16:  ES64L-G16RevC.01  3-Jul-2019

 ----------------------------------------
 #P CCSD(T)/aug-cc-pVDZ scf(maxcycle=200)
 ----------------------------------------

 --------------
 Gaussian input
 --------------
 Symbolic Z-matrix:
 Charge =  0 Multiplicity = 1

                         Standard orientation:
 ---------------------------------------------------------------------
 Center     Atomic      Atomic             Coordinates (Angstroms)
 Number     Number       Type             X           Y           Z
 ---------------------------------------------------------------------
      1          8           0        0.000000   -0.000000    0.115098
      2          1           0       -0.000000    0.828791   -0.460391
      3          1           0       -0.000000   -0.828791   -0.460391
 ---------------------------------------------------------------------

 SCF Done:  E(RHF) =  -76.0326294331     A.U. after   10 cycles
 E2 =    -0.2236054309D+00 EUMP2 =    -0.76256234863982D+02
 CCSD(T)
 CCSD(T)= -0.76269359341D+02

 The electronic state is 1-A1.
 Alpha  occ. eigenvalues --  -20.58256  -1.32771  -0.70191  -0.56439  -0.50350
 Alpha virt. eigenvalues --    0.03486   0.05709   0.17574   0.19862   0.21626
 Alpha virt. eigenvalues --    0.23083   0.28038   0.31645   0.37845   0.40846
 Alpha virt. eigenvalues --    0.43527   0.52518   0.63471   0.65172   0.80694

 Mulliken charges:
               1
     1  O   -0.423788
     2  H    0.211894
     3  H    0.211894
 Sum of Mulliken charges =   0.00000

 Dipole moment (field-independent basis, Debye):
    X=             -0.0000    Y=             -0.0000    Z=             -1.9349  Tot=              1.9349
 Quadrupole moment (field-independent basis, Debye-Ang):
   XX=             -7.7234   YY=             -3.8662   ZZ=             -6.4832
   XY=              0.0000   XZ=              0.0000   YZ=              0.0000

 2639952\CCSD=-76.2637802\CCSD(T)=-76.2693593\RMSD=8.058e-09\PG=C02V [C
 Normal termination of Gaussian 16 at Wed Feb  8 14:51:21 2023.
