 Gaussian 16, Revision C.01,
 Gaussian 16:  ES64L-G16RevC.01  3-Jul-2019

 ----------------------------------------
 #P CCSD(T)/aug-cc-pVTZ scf(maxcycle=200)
 ----------------------------------------

 --------------
 Gaussian input
 --------------
 Symbolic Z-matrix:
 Charge =  0 Multiplicity = 1

                         Standard orientation:
 ---------------------------------------------------------------------
 Center     Atomic      Atomic             Coordinates (Angstroms)
 Number     Number       Type             X           Y           Z
 ---------------------------------------------------------------------
      1          8           0        0.000000    0.103719    0.000000
      2          1           0        0.835278   -0.367440    0.000000
      3          1           0       -0.835278   -0.462312    0.000000
 ---------------------------------------------------------------------

 SCF Done:  E(RHF) =  -76.0531747648     A.U. after   10 cycles
 E2 =    -0.2699078588D+00 EUMP2 =    -0.76323082623632D+02
 CCSD(T)
 CCSD(T)= -0.76336430573D+02

 The electronic state is 1-A'.
 Alpha  occ. eigenvalues --  -20.56571  -1.33299  -0.72362  -0.55709  -0.50435
 Alpha virt. eigenvalues --    0.02968   0.04685   0.13722   0.15788   0.17028
 Alpha virt. eigenvalues --    0.18035   0.22918   0.24195   0.26063   0.31249
 Alpha virt. eigenvalues --    0.31881   0.36363   0.42840   0.46327   0.60645

 Mulliken charges:
               1
     1  O   -0.482748
     2  H    0.222197
     3  H    0.260550
 Sum of Mulliken charges =  -0.00000

 Dipole moment (field-independent basis, Debye):
    X=              0.0130    Y=             -1.7923    Z=              0.0000  Tot=              1.7924
 Quadrupole moment (field-independent basis, Debye-Ang):
   XX=             -3.6466   YY=             -6.6186   ZZ=             -7.6437
   XY=              0.1907   XZ=              0.0000   YZ=              0.0000

 .3280792\CCSD=-76.3275758\CCSD(T)=-76.3364306\RMSD=4.364e-09\PG=CS [SG
 Normal termination of Gaussian 16 at Wed Feb  8 13:54:35 2023.
