 Gaussian 16, Revision C.01,
 Gaussian 16:  ES64L-G16RevC.01  3-Jul-2019

 ----------------------------------------
 #P CCSD(T)/aug-cc-pVTZ scf(maxcycle=200)
 ----------------------------------------

 --------------
 Gaussian input
 --------------
 Symbolic Z-matrix:
 Charge =  0 Multiplicity = 1

                         Standard orientation:
 ---------------------------------------------------------------------
 Center     Atomic      Atomic             Coordinates (Angstroms)
 Number     Number       Type             X           Y           Z
 ---------------------------------------------------------------------
      1          8           0        0.000000    0.000000    0.097141
      2          1           0       -0.000000    0.884405   -0.388563
      3          1           0       -0.000000   -0.884405   -0.388563
 ---------------------------------------------------------------------

 SCF Done:  E(RHF) =  -76.0445933140     A.U. after   10 cycles
 E2 =    -0.2718398260D+00 EUMP2 =    -0.76316433140014D+02
 CCSD(T)
 CCSD(T)= -0.76329744751D+02

 The electronic state is 1-A1.
 Alpha  occ. eigenvalues --  -20.56612  -1.31739  -0.71751  -0.54198  -0.49995
 Alpha virt. eigenvalues --    0.02951   0.04637   0.13749   0.15840   0.16676
 Alpha virt. eigenvalues --    0.17870   0.22963   0.23963   0.25815   0.31861
 Alpha virt. eigenvalues --    0.32365   0.36214   0.42088   0.45766   0.61088

 Mulliken charges:
               1
     1  O   -0.530698
     2  H    0.265349
     3  H    0.265349
 Sum of Mulliken charges =  -0.00000

 Dipole moment (field-independent basis, Debye):
    X=             -0.0000    Y=              0.0000    Z=             -1.6870  Tot=              1.6870
 Quadrupole moment (field-independent basis, Debye-Ang):
   XX=             -7.7182   YY=             -3.2712   ZZ=             -6.8398
   XY=              0.0000   XZ=              0.0000   YZ=             -0.0000

 .3211659\CCSD=-76.320629\CCSD(T)=-76.3297448\RMSD=5.196e-09\PG=C02V [C
 Normal termination of Gaussian 16 at Wed Feb  8 13:58:11 2023.
