 Gaussian 16, Revision C.01,
 Gaussian 16:  ES64L-G16RevC.01  3-Jul-2019

 ----------------------------------------
 #P PBE1PBE/aug-cc-pVDZ scf(maxcycle=200)
 ----------------------------------------

 --------------
 Gaussian input
 --------------
 Symbolic Z-matrix:
 Charge =  0 Multiplicity = 1

                         Standard orientation:
 ---------------------------------------------------------------------
 Center     Atomic      Atomic             Coordinates (Angstroms)
 Number     Number       Type             X           Y           Z
 ---------------------------------------------------------------------
      1          8           0        0.000000    0.000000    0.090281
      2          1           0        0.000000    0.788996   -0.361124
      3          1           0       -0.000000   -0.788996   -0.361124
 ---------------------------------------------------------------------

 SCF Done:  E(RPBE1PBE) =  -76.3498767762     A.U. after    8 cycles

 The electronic state is 1-A1.
 Alpha  occ. eigenvalues --  -19.21645  -1.06017  -0.60118  -0.38718  -0.33477
 Alpha virt. eigenvalues --   -0.00686   0.03324   0.11581   0.12895   0.14418
 Alpha virt. eigenvalues --    0.16639   0.21578   0.22436   0.28779   0.34445
 Alpha virt. eigenvalues --    0.36614   0.44429   0.53751   0.54415   0.69932

 Mulliken charges:
               1
     1  O   -0.151493
     2  H    0.075747
     3  H    0.075747
 Sum of Mulliken charges =   0.00000

 Dipole moment (field-independent basis, Debye):
    X=             -0.0000    Y=              0.0000    Z=             -1.5873  Tot=              1.5873
 Quadrupole moment (field-independent basis, Debye-Ang):
   XX=             -7.6554   YY=             -3.9826   ZZ=             -6.8285
   XY=              0.0000   XZ=              0.0000   YZ=             -0.0000

 Normal termination of Gaussian 16 at Mon Mar 20 17:33:17 2023.
