 Gaussian 16, Revision C.01,
 Gaussian 16:  ES64L-G16RevC.01  3-Jul-2019

 -----------------------------------
 #P HF/aug-cc-pVDZ scf(maxcycle=200)
 -----------------------------------

 --------------
 Gaussian input
 --------------
 Symbolic Z-matrix:
 Charge =  0 Multiplicity = 1

                         Standard orientation:
 ---------------------------------------------------------------------
 Center     Atomic      Atomic             Coordinates (Angstroms)
 Number     Number       Type             X           Y           Z
 ---------------------------------------------------------------------
      1          8           0        0.000000    0.000000    0.123615
      2          1           0        0.000000    0.797536   -0.494460
      3          1           0       -0.000000   -0.797536   -0.494460
 ---------------------------------------------------------------------

 SCF Done:  E(RHF) =  -76.0337240916     A.U. after   10 cycles

 The electronic state is 1-A1.
 Alpha  occ. eigenvalues --  -20.58567  -1.33155  -0.69176  -0.57580  -0.50549
 Alpha virt. eigenvalues --    0.03445   0.05763   0.17501   0.19916   0.21810
 Alpha virt. eigenvalues --    0.23298   0.27591   0.32509   0.38194   0.39646
 Alpha virt. eigenvalues --    0.42606   0.53153   0.63406   0.65264   0.79187

 Mulliken charges:
               1
     1  O   -0.408391
     2  H    0.204196
     3  H    0.204196
 Sum of Mulliken charges =  -0.00000

 Dipole moment (field-independent basis, Debye):
    X=             -0.0000    Y=              0.0000    Z=             -2.0393  Tot=              2.0393
 Quadrupole moment (field-independent basis, Debye-Ang):
   XX=             -7.7101   YY=             -4.1560   ZZ=             -6.2865
   XY=              0.0000   XZ=              0.0000   YZ=             -0.0000

 Normal termination of Gaussian 16 at Mon Feb 20 10:29:32 2023.
