 Gaussian 16, Revision C.01,
 Gaussian 16:  ES64L-G16RevC.01  3-Jul-2019

 ----------------------------------------
 #P CCSD(T)/aug-cc-pVTZ scf(maxcycle=200)
 ----------------------------------------

 --------------
 Gaussian input
 --------------
 Symbolic Z-matrix:
 Charge =  0 Multiplicity = 1

                         Standard orientation:
 ---------------------------------------------------------------------
 Center     Atomic      Atomic             Coordinates (Angstroms)
 Number     Number       Type             X           Y           Z
 ---------------------------------------------------------------------
      1          8           0        0.000000    0.122056   -0.000000
      2          1           0        0.706453   -0.526485    0.000000
      3          1           0       -0.706453   -0.449963   -0.000000
 ---------------------------------------------------------------------

 SCF Done:  E(RHF) =  -76.0578124405     A.U. after   10 cycles
 E2 =    -0.2670282792D+00 EUMP2 =    -0.76324840719690D+02
 CCSD(T)
 CCSD(T)= -0.76338136308D+02

 The electronic state is 1-A'.
 Alpha  occ. eigenvalues --  -20.56527  -1.37145  -0.71818  -0.60129  -0.51408
 Alpha virt. eigenvalues --    0.02928   0.04815   0.13500   0.15832   0.17672
 Alpha virt. eigenvalues --    0.18444   0.22784   0.24710   0.26769   0.29585
 Alpha virt. eigenvalues --    0.30773   0.36832   0.44081   0.47216   0.59748

 Mulliken charges:
               1
     1  O   -0.399735
     2  H    0.225662
     3  H    0.174072
 Sum of Mulliken charges =   0.00000

 Dipole moment (field-independent basis, Debye):
    X=             -0.0259    Y=             -2.0588    Z=              0.0000  Tot=              2.0590
 Quadrupole moment (field-independent basis, Debye-Ang):
   XX=             -4.5573   YY=             -6.0421   ZZ=             -7.4946
   XY=             -0.1150   XZ=              0.0000   YZ=              0.0000

 .3301535\CCSD=-76.3296961\CCSD(T)=-76.3381363\RMSD=2.885e-09\PG=CS [SG
 Normal termination of Gaussian 16 at Wed Feb  8 13:51:25 2023.
