 Gaussian 16, Revision C.01,
 Gaussian 16:  ES64L-G16RevC.01  3-Jul-2019

 ---------------------------------
 #P B3LYP/6-31g* scf(maxcycle=200)
 ---------------------------------

 --------------
 Gaussian input
 --------------
 Symbolic Z-matrix:
 Charge =  0 Multiplicity = 1

                         Standard orientation:
 ---------------------------------------------------------------------
 Center     Atomic      Atomic             Coordinates (Angstroms)
 Number     Number       Type             X           Y           Z
 ---------------------------------------------------------------------
      1          8           0        0.000000    0.100788   -0.000000
      2          1           0        0.844123   -0.451967   -0.000000
      3          1           0       -0.844123   -0.354336    0.000000
 ---------------------------------------------------------------------

 SCF Done:  E(RB3LYP) =  -76.4016670443     A.U. after    9 cycles

 The electronic state is 1-A'.
 Alpha  occ. eigenvalues --  -19.13177  -0.97984  -0.53296  -0.34119  -0.28456
 Alpha virt. eigenvalues --    0.05583   0.14777   0.77599   0.83598   0.89499
 Alpha virt. eigenvalues --    0.89553   1.08410   1.14824   1.73968   1.77513
 Alpha virt. eigenvalues --    1.79936   2.29905   2.52675   3.56687

 Mulliken charges:
               1
     1  O   -0.799199
     2  H    0.396533
     3  H    0.402665
 Sum of Mulliken charges =  -0.00000

 Dipole moment (field-independent basis, Debye):
    X=             -0.0412    Y=             -1.8527    Z=              0.0000  Tot=              1.8532
 Quadrupole moment (field-independent basis, Debye-Ang):
   XX=             -3.6017   YY=             -6.3539   ZZ=             -7.2308
   XY=             -0.1774   XZ=             -0.0000   YZ=              0.0000

 Normal termination of Gaussian 16 at Wed Feb  8 14:52:24 2023.
