 Gaussian 16, Revision C.01,
 Gaussian 16:  ES64L-G16RevC.01  3-Jul-2019

 ------------------------------------
 #P wB97XD/6-311g** scf(maxcycle=200)
 ------------------------------------

 --------------
 Gaussian input
 --------------
 Symbolic Z-matrix:
 Charge =  0 Multiplicity = 1

                         Standard orientation:
 ---------------------------------------------------------------------
 Center     Atomic      Atomic             Coordinates (Angstroms)
 Number     Number       Type             X           Y           Z
 ---------------------------------------------------------------------
      1          8           0       -0.000000   -0.000000    0.095733
      2          1           0       -0.000000    0.772761   -0.382933
      3          1           0       -0.000000   -0.772761   -0.382933
 ---------------------------------------------------------------------

 SCF Done:  E(RwB97XD) =  -76.4159532013     A.U. after   12 cycles

 The electronic state is 1-A1.
 Alpha  occ. eigenvalues --  -19.21130  -1.11566  -0.65131  -0.44408  -0.38741
 Alpha virt. eigenvalues --    0.13186   0.20145   0.50165   0.51637   0.84761
 Alpha virt. eigenvalues --    0.85553   0.95348   1.14539   1.32753   1.49211
 Alpha virt. eigenvalues --    1.62407   1.71140   2.13557   2.14347   2.46833

 Mulliken charges:
               1
     1  O   -0.523199
     2  H    0.261599
     3  H    0.261599
 Sum of Mulliken charges =   0.00000

 Dipole moment (field-independent basis, Debye):
    X=             -0.0000    Y=             -0.0000    Z=             -1.8825  Tot=              1.8825
 Quadrupole moment (field-independent basis, Debye-Ang):
   XX=             -7.0696   YY=             -3.8395   ZZ=             -6.2900
   XY=              0.0000   XZ=              0.0000   YZ=             -0.0000

 Normal termination of Gaussian 16 at Wed Feb  8 14:40:05 2023.
