 Gaussian 16, Revision C.01,
 Gaussian 16:  ES64L-G16RevC.01  3-Jul-2019

 ----------------------------------------
 #P PBE1PBE/aug-cc-pVDZ scf(maxcycle=200)
 ----------------------------------------

 --------------
 Gaussian input
 --------------
 Symbolic Z-matrix:
 Charge =  0 Multiplicity = 1

                         Standard orientation:
 ---------------------------------------------------------------------
 Center     Atomic      Atomic             Coordinates (Angstroms)
 Number     Number       Type             X           Y           Z
 ---------------------------------------------------------------------
      1          8           0        0.000000   -0.000000    0.142030
      2          1           0        0.000000    0.644490   -0.568120
      3          1           0       -0.000000   -0.644490   -0.568120
 ---------------------------------------------------------------------

 SCF Done:  E(RPBE1PBE) =  -76.3488807115     A.U. after    8 cycles

 The electronic state is 1-A1.
 Alpha  occ. eigenvalues --  -19.23753  -1.06508  -0.51021  -0.45067  -0.33729
 Alpha virt. eigenvalues --   -0.01555   0.03469   0.10793   0.13337   0.14782
 Alpha virt. eigenvalues --    0.16677   0.18458   0.26563   0.27575   0.30396
 Alpha virt. eigenvalues --    0.30756   0.47206   0.50723   0.55049   0.60056

 Mulliken charges:
               1
     1  O   -0.220486
     2  H    0.110243
     3  H    0.110243
 Sum of Mulliken charges =  -0.00000

 Dipole moment (field-independent basis, Debye):
    X=             -0.0000    Y=             -0.0000    Z=             -2.1321  Tot=              2.1321
 Quadrupole moment (field-independent basis, Debye-Ang):
   XX=             -7.7108   YY=             -5.3127   ZZ=             -5.8420
   XY=              0.0000   XZ=              0.0000   YZ=              0.0000

 Normal termination of Gaussian 16 at Mon Mar 20 17:34:20 2023.
