 Gaussian 16, Revision C.01,
 Gaussian 16:  ES64L-G16RevC.01  3-Jul-2019

 ------------------------------
 #P HF/6-31g* scf(maxcycle=200)
 ------------------------------

 --------------
 Gaussian input
 --------------
 Symbolic Z-matrix:
 Charge =  0 Multiplicity = 1

                         Standard orientation:
 ---------------------------------------------------------------------
 Center     Atomic      Atomic             Coordinates (Angstroms)
 Number     Number       Type             X           Y           Z
 ---------------------------------------------------------------------
      1          8           0       -0.000000    0.000000    0.126380
      2          1           0       -0.000000    0.786628   -0.505520
      3          1           0       -0.000000   -0.786628   -0.505520
 ---------------------------------------------------------------------

 SCF Done:  E(RHF) =  -76.0036420089     A.U. after   10 cycles

 The electronic state is 1-A1.
 Alpha  occ. eigenvalues --  -20.57164  -1.31842  -0.67605  -0.56570  -0.49569
 Alpha virt. eigenvalues --    0.19887   0.28891   0.99214   1.10153   1.14592
 Alpha virt. eigenvalues --    1.16714   1.36482   1.44037   2.02726   2.04719
 Alpha virt. eigenvalues --    2.07410   2.55873   2.85415   3.94040

 Mulliken charges:
               1
     1  O   -0.853207
     2  H    0.426603
     3  H    0.426603
 Sum of Mulliken charges =   0.00000

 Dipole moment (field-independent basis, Debye):
    X=             -0.0000    Y=             -0.0000    Z=             -2.3010  Tot=              2.3010
 Quadrupole moment (field-independent basis, Debye-Ang):
   XX=             -7.3326   YY=             -4.1333   ZZ=             -5.9328
   XY=              0.0000   XZ=              0.0000   YZ=              0.0000

 Normal termination of Gaussian 16 at Wed Feb  8 15:07:34 2023.
