 Gaussian 16, Revision C.01,
 Gaussian 16:  ES64L-G16RevC.01  3-Jul-2019

 ---------------------------------
 #P B3LYP/6-31g* scf(maxcycle=200)
 ---------------------------------

 --------------
 Gaussian input
 --------------
 Symbolic Z-matrix:
 Charge =  0 Multiplicity = 1

                         Standard orientation:
 ---------------------------------------------------------------------
 Center     Atomic      Atomic             Coordinates (Angstroms)
 Number     Number       Type             X           Y           Z
 ---------------------------------------------------------------------
      1          8           0        0.000000    0.000000    0.120812
      2          1           0        0.000000    0.808202   -0.483250
      3          1           0       -0.000000   -0.808202   -0.483250
 ---------------------------------------------------------------------

 SCF Done:  E(RB3LYP) =  -76.4058565119     A.U. after   10 cycles

 The electronic state is 1-A1.
 Alpha  occ. eigenvalues --  -19.14341  -0.97918  -0.50689  -0.36393  -0.28752
 Alpha virt. eigenvalues --    0.05109   0.13430   0.76539   0.81197   0.89176
 Alpha virt. eigenvalues --    0.89367   1.06156   1.17618   1.74595   1.75316
 Alpha virt. eigenvalues --    1.78899   2.23611   2.51067   3.53643

 Mulliken charges:
               1
     1  O   -0.767431
     2  H    0.383715
     3  H    0.383715
 Sum of Mulliken charges =  -0.00000

 Dipole moment (field-independent basis, Debye):
    X=             -0.0000    Y=             -0.0000    Z=             -2.0610  Tot=              2.0610
 Quadrupole moment (field-independent basis, Debye-Ang):
   XX=             -7.2810   YY=             -4.0993   ZZ=             -6.0779
   XY=              0.0000   XZ=              0.0000   YZ=              0.0000

 Normal termination of Gaussian 16 at Wed Feb  8 14:52:37 2023.
