 Gaussian 16, Revision C.01,
 Gaussian 16:  ES64L-G16RevC.01  3-Jul-2019

 ------------------------------------
 #P wB97XD/6-311g** scf(maxcycle=200)
 ------------------------------------

 --------------
 Gaussian input
 --------------
 Symbolic Z-matrix:
 Charge =  0 Multiplicity = 1

                         Standard orientation:
 ---------------------------------------------------------------------
 Center     Atomic      Atomic             Coordinates (Angstroms)
 Number     Number       Type             X           Y           Z
 ---------------------------------------------------------------------
      1          8           0        0.000000    0.000000    0.120812
      2          1           0        0.000000    0.808202   -0.483250
      3          1           0       -0.000000   -0.808202   -0.483250
 ---------------------------------------------------------------------

 SCF Done:  E(RwB97XD) =  -76.4182864140     A.U. after   12 cycles

 The electronic state is 1-A1.
 Alpha  occ. eigenvalues --  -19.23289  -1.08076  -0.59458  -0.45468  -0.38194
 Alpha virt. eigenvalues --    0.10826   0.18109   0.44612   0.47468   0.85363
 Alpha virt. eigenvalues --    0.85575   0.94425   1.15984   1.33644   1.38317
 Alpha virt. eigenvalues --    1.54852   1.68785   1.96545   2.08255   2.39339

 Mulliken charges:
               1
     1  O   -0.502193
     2  H    0.251097
     3  H    0.251097
 Sum of Mulliken charges =   0.00000

 Dipole moment (field-independent basis, Debye):
    X=             -0.0000    Y=             -0.0000    Z=             -2.0922  Tot=              2.0922
 Quadrupole moment (field-independent basis, Debye-Ang):
   XX=             -7.2825   YY=             -4.0318   ZZ=             -6.1047
   XY=              0.0000   XZ=              0.0000   YZ=              0.0000

 Normal termination of Gaussian 16 at Wed Feb  8 14:43:04 2023.
