 Gaussian 16, Revision C.01,
 Gaussian 16:  ES64L-G16RevC.01  3-Jul-2019

 ----------------------------------------
 #P CCSD(T)/aug-cc-pVTZ scf(maxcycle=200)
 ----------------------------------------

 --------------
 Gaussian input
 --------------
 Symbolic Z-matrix:
 Charge =  0 Multiplicity = 1

                         Standard orientation:
 ---------------------------------------------------------------------
 Center     Atomic      Atomic             Coordinates (Angstroms)
 Number     Number       Type             X           Y           Z
 ---------------------------------------------------------------------
      1          8           0        0.000000    0.092742    0.000000
      2          1           0        0.834542   -0.267564    0.000000
      3          1           0       -0.834542   -0.474374    0.000000
 ---------------------------------------------------------------------

 SCF Done:  E(RHF) =  -76.0488314159     A.U. after   10 cycles
 E2 =    -0.2679339706D+00 EUMP2 =    -0.76316765386474D+02
 CCSD(T)
 CCSD(T)= -0.76330047181D+02

 The electronic state is 1-A'.
 Alpha  occ. eigenvalues --  -20.55805  -1.34314  -0.74744  -0.55024  -0.50466
 Alpha virt. eigenvalues --    0.03018   0.04669   0.13775   0.15528   0.16839
 Alpha virt. eigenvalues --    0.17964   0.23246   0.24198   0.25915   0.32094
 Alpha virt. eigenvalues --    0.32578   0.36307   0.42846   0.46953   0.61318

 Mulliken charges:
               1
     1  O   -0.440756
     2  H    0.174311
     3  H    0.266446
 Sum of Mulliken charges =  -0.00000

 Dipole moment (field-independent basis, Debye):
    X=              0.0169    Y=             -1.6649    Z=              0.0000  Tot=              1.6650
 Quadrupole moment (field-independent basis, Debye-Ang):
   XX=             -3.5163   YY=             -6.7164   ZZ=             -7.5977
   XY=              0.4366   XZ=              0.0000   YZ=              0.0000

 .3219111\CCSD=-76.3214351\CCSD(T)=-76.3300472\RMSD=3.765e-09\PG=CS [SG
 Normal termination of Gaussian 16 at Wed Feb  8 13:51:08 2023.
