 Gaussian 16, Revision C.01,
 Gaussian 16:  ES64L-G16RevC.01  3-Jul-2019

 ----------------------------------------
 #P CCSD(T)/aug-cc-pVDZ scf(maxcycle=200)
 ----------------------------------------

 --------------
 Gaussian input
 --------------
 Symbolic Z-matrix:
 Charge =  0 Multiplicity = 1

                         Standard orientation:
 ---------------------------------------------------------------------
 Center     Atomic      Atomic             Coordinates (Angstroms)
 Number     Number       Type             X           Y           Z
 ---------------------------------------------------------------------
      1          8           0        0.000000    0.126913    0.000000
      2          1           0        0.684803   -0.470855    0.000000
      3          1           0       -0.684803   -0.544448    0.000000
 ---------------------------------------------------------------------

 SCF Done:  E(RHF) =  -76.0361752636     A.U. after   10 cycles
 E2 =    -0.2181538639D+00 EUMP2 =    -0.76254329127547D+02
 CCSD(T)
 CCSD(T)= -0.76267198715D+02

 The electronic state is 1-A'.
 Alpha  occ. eigenvalues --  -20.57713  -1.37794  -0.71044  -0.61023  -0.51418
 Alpha virt. eigenvalues --    0.03482   0.05892   0.17196   0.19676   0.22438
 Alpha virt. eigenvalues --    0.23355   0.29270   0.35096   0.38944   0.39283
 Alpha virt. eigenvalues --    0.42369   0.55227   0.64796   0.66111   0.80172

 Mulliken charges:
               1
     1  O   -0.235585
     2  H    0.091730
     3  H    0.143856
 Sum of Mulliken charges =   0.00000

 Dipole moment (field-independent basis, Debye):
    X=              0.0289    Y=             -2.1336    Z=              0.0000  Tot=              2.1338
 Quadrupole moment (field-independent basis, Debye-Ang):
   XX=             -4.7597   YY=             -5.9479   ZZ=             -7.5150
   XY=              0.1056   XZ=              0.0000   YZ=              0.0000

 2622802\CCSD=-76.2620815\CCSD(T)=-76.2671987\RMSD=5.557e-09\PG=CS [SG(
 Normal termination of Gaussian 16 at Wed Feb  8 14:47:53 2023.
