 Gaussian 16, Revision C.01,
 Gaussian 16:  ES64L-G16RevC.01  3-Jul-2019

 ------------------------------
 #P HF/6-31g* scf(maxcycle=200)
 ------------------------------

 --------------
 Gaussian input
 --------------
 Symbolic Z-matrix:
 Charge =  0 Multiplicity = 1

                         Standard orientation:
 ---------------------------------------------------------------------
 Center     Atomic      Atomic             Coordinates (Angstroms)
 Number     Number       Type             X           Y           Z
 ---------------------------------------------------------------------
      1          8           0       -0.000000    0.000000    0.123464
      2          1           0        0.000000    0.667230   -0.493857
      3          1           0       -0.000000   -0.667230   -0.493857
 ---------------------------------------------------------------------

 SCF Done:  E(RHF) =  -76.0025793143     A.U. after   10 cycles

 The electronic state is 1-A1.
 Alpha  occ. eigenvalues --  -20.55556  -1.37882  -0.71198  -0.60145  -0.50524
 Alpha virt. eigenvalues --    0.21677   0.31683   1.00359   1.13121   1.16515
 Alpha virt. eigenvalues --    1.27575   1.39389   1.47394   1.98024   2.03144
 Alpha virt. eigenvalues --    2.04660   2.70635   2.99412   3.97401

 Mulliken charges:
               1
     1  O   -0.848534
     2  H    0.424267
     3  H    0.424267
 Sum of Mulliken charges =   0.00000

 Dipole moment (field-independent basis, Debye):
    X=             -0.0000    Y=             -0.0000    Z=             -2.3459  Tot=              2.3459
 Quadrupole moment (field-independent basis, Debye-Ang):
   XX=             -7.1274   YY=             -4.6530   ZZ=             -5.6973
   XY=              0.0000   XZ=              0.0000   YZ=              0.0000

 Normal termination of Gaussian 16 at Wed Feb  8 15:04:50 2023.
