 Gaussian 16, Revision C.01,
 Gaussian 16:  ES64L-G16RevC.01  3-Jul-2019

 ----------------------------------------
 #P CCSD(T)/aug-cc-pVDZ scf(maxcycle=200)
 ----------------------------------------

 --------------
 Gaussian input
 --------------
 Symbolic Z-matrix:
 Charge =  0 Multiplicity = 1

                         Standard orientation:
 ---------------------------------------------------------------------
 Center     Atomic      Atomic             Coordinates (Angstroms)
 Number     Number       Type             X           Y           Z
 ---------------------------------------------------------------------
      1          8           0        0.000000    0.000000    0.106281
      2          1           0       -0.000000    0.737489   -0.425124
      3          1           0       -0.000000   -0.737489   -0.425124
 ---------------------------------------------------------------------

 SCF Done:  E(RHF) =  -76.0389468536     A.U. after   10 cycles
 E2 =    -0.2149987478D+00 EUMP2 =    -0.76253945601458D+02
 CCSD(T)
 CCSD(T)= -0.76266831560D+02

 The electronic state is 1-A1.
 Alpha  occ. eigenvalues --  -20.56710  -1.38008  -0.75500  -0.58692  -0.51274
 Alpha virt. eigenvalues --    0.03651   0.05781   0.17308   0.19367   0.22516
 Alpha virt. eigenvalues --    0.22871   0.30651   0.33271   0.38725   0.41916
 Alpha virt. eigenvalues --    0.44729   0.54250   0.65707   0.66160   0.85038

 Mulliken charges:
               1
     1  O   -0.194722
     2  H    0.097361
     3  H    0.097361
 Sum of Mulliken charges =  -0.00000

 Dipole moment (field-independent basis, Debye):
    X=             -0.0000    Y=              0.0000    Z=             -1.8955  Tot=              1.8955
 Quadrupole moment (field-independent basis, Debye-Ang):
   XX=             -7.4781   YY=             -4.2324   ZZ=             -6.3441
   XY=              0.0000   XZ=              0.0000   YZ=             -0.0000

 .2621688\CCSD=-76.2619809\CCSD(T)=-76.2668316\RMSD=3.447e-09\PG=C02V [
 Normal termination of Gaussian 16 at Wed Feb  8 14:47:14 2023.
