 Gaussian 16, Revision C.01,
 Gaussian 16:  ES64L-G16RevC.01  3-Jul-2019

 ----------------------------------------
 #P CCSD(T)/aug-cc-pVDZ scf(maxcycle=200)
 ----------------------------------------

 --------------
 Gaussian input
 --------------
 Symbolic Z-matrix:
 Charge =  0 Multiplicity = 1

                         Standard orientation:
 ---------------------------------------------------------------------
 Center     Atomic      Atomic             Coordinates (Angstroms)
 Number     Number       Type             X           Y           Z
 ---------------------------------------------------------------------
      1          8           0        0.000000    0.094835   -0.000000
      2          1           0        0.861015   -0.431220   -0.000000
      3          1           0       -0.861015   -0.327461    0.000000
 ---------------------------------------------------------------------

 SCF Done:  E(RHF) =  -76.0300594048     A.U. after   10 cycles
 E2 =    -0.2212174208D+00 EUMP2 =    -0.76251276825596D+02
 CCSD(T)
 CCSD(T)= -0.76264239206D+02

 The electronic state is 1-A'.
 Alpha  occ. eigenvalues --  -20.57185  -1.33228  -0.73400  -0.54651  -0.50135
 Alpha virt. eigenvalues --    0.03597   0.05620   0.17675   0.19626   0.21361
 Alpha virt. eigenvalues --    0.22608   0.29528   0.30623   0.37391   0.43778
 Alpha virt. eigenvalues --    0.45864   0.51540   0.63857   0.65499   0.84609

 Mulliken charges:
               1
     1  O   -0.412829
     2  H    0.236303
     3  H    0.176526
 Sum of Mulliken charges =   0.00000

 Dipole moment (field-independent basis, Debye):
    X=             -0.0092    Y=             -1.6921    Z=             -0.0000  Tot=              1.6922
 Quadrupole moment (field-independent basis, Debye-Ang):
   XX=             -3.4139   YY=             -6.8197   ZZ=             -7.6954
   XY=             -0.2262   XZ=             -0.0000   YZ=              0.0000

 .2590975\CCSD=-76.2588714\CCSD(T)=-76.2642392\RMSD=7.530e-09\PG=CS [SG
 Normal termination of Gaussian 16 at Wed Feb  8 14:51:00 2023.
