 Gaussian 16, Revision C.01,
 Gaussian 16:  ES64L-G16RevC.01  3-Jul-2019

 ----------------------------------------
 #P CCSD(T)/aug-cc-pVTZ scf(maxcycle=200)
 ----------------------------------------

 --------------
 Gaussian input
 --------------
 Symbolic Z-matrix:
 Charge =  0 Multiplicity = 1

                         Standard orientation:
 ---------------------------------------------------------------------
 Center     Atomic      Atomic             Coordinates (Angstroms)
 Number     Number       Type             X           Y           Z
 ---------------------------------------------------------------------
      1          8           0        0.000000    0.127996    0.000000
      2          1           0        0.712035   -0.586908    0.000000
      3          1           0       -0.712035   -0.437060   -0.000000
 ---------------------------------------------------------------------

 SCF Done:  E(RHF) =  -76.0532198860     A.U. after   10 cycles
 E2 =    -0.2692273314D+00 EUMP2 =    -0.76322447217343D+02
 CCSD(T)
 CCSD(T)= -0.76335786292D+02

 The electronic state is 1-A'.
 Alpha  occ. eigenvalues --  -20.57031  -1.36119  -0.70166  -0.59937  -0.51274
 Alpha virt. eigenvalues --    0.02874   0.04823   0.13435   0.15970   0.17560
 Alpha virt. eigenvalues --    0.18537   0.22458   0.24616   0.26832   0.29284
 Alpha virt. eigenvalues --    0.30588   0.36757   0.43176   0.47016   0.59467

 Mulliken charges:
               1
     1  O   -0.432703
     2  H    0.259752
     3  H    0.172952
 Sum of Mulliken charges =  -0.00000

 Dipole moment (field-independent basis, Debye):
    X=             -0.0535    Y=             -2.1127    Z=             -0.0000  Tot=              2.1133
 Quadrupole moment (field-independent basis, Debye-Ang):
   XX=             -4.6135   YY=             -5.9707   ZZ=             -7.5482
   XY=             -0.2211   XZ=              0.0000   YZ=              0.0000

 .3275542\CCSD=-76.3270715\CCSD(T)=-76.3357863\RMSD=4.004e-09\PG=CS [SG
 Normal termination of Gaussian 16 at Wed Feb  8 13:55:27 2023.
