 Gaussian 16, Revision C.01,
 Gaussian 16:  ES64L-G16RevC.01  3-Jul-2019

 ---------------------------------
 #P B3LYP/6-31g* scf(maxcycle=200)
 ---------------------------------

 --------------
 Gaussian input
 --------------
 Symbolic Z-matrix:
 Charge =  0 Multiplicity = 1

                         Standard orientation:
 ---------------------------------------------------------------------
 Center     Atomic      Atomic             Coordinates (Angstroms)
 Number     Number       Type             X           Y           Z
 ---------------------------------------------------------------------
      1          8           0        0.000000    0.000000    0.118732
      2          1           0       -0.000000    0.688368   -0.474927
      3          1           0       -0.000000   -0.688368   -0.474927
 ---------------------------------------------------------------------

 SCF Done:  E(RB3LYP) =  -76.4000270736     A.U. after    9 cycles

 The electronic state is 1-A1.
 Alpha  occ. eigenvalues --  -19.13008  -1.03128  -0.53031  -0.38723  -0.29759
 Alpha virt. eigenvalues --    0.07635   0.16814   0.78012   0.88232   0.88922
 Alpha virt. eigenvalues --    0.96571   1.08135   1.22090   1.69900   1.73753
 Alpha virt. eigenvalues --    1.76343   2.36144   2.66501   3.57214

 Mulliken charges:
               1
     1  O   -0.773469
     2  H    0.386735
     3  H    0.386735
 Sum of Mulliken charges =   0.00000

 Dipole moment (field-independent basis, Debye):
    X=             -0.0000    Y=             -0.0000    Z=             -2.1482  Tot=              2.1482
 Quadrupole moment (field-independent basis, Debye-Ang):
   XX=             -7.0862   YY=             -4.5804   ZZ=             -5.8362
   XY=              0.0000   XZ=              0.0000   YZ=              0.0000

 Normal termination of Gaussian 16 at Wed Feb  8 14:49:31 2023.
