 Gaussian 16, Revision C.01,
 Gaussian 16:  ES64L-G16RevC.01  3-Jul-2019

 ----------------------------------------
 #P CCSD(T)/aug-cc-pVDZ scf(maxcycle=200)
 ----------------------------------------

 --------------
 Gaussian input
 --------------
 Symbolic Z-matrix:
 Charge =  0 Multiplicity = 1

                         Standard orientation:
 ---------------------------------------------------------------------
 Center     Atomic      Atomic             Coordinates (Angstroms)
 Number     Number       Type             X           Y           Z
 ---------------------------------------------------------------------
      1          8           0       -0.000000   -0.000000    0.149435
      2          1           0        0.000000    0.678092   -0.597741
      3          1           0       -0.000000   -0.678092   -0.597741
 ---------------------------------------------------------------------

 SCF Done:  E(RHF) =  -76.0232703949     A.U. after   10 cycles
 E2 =    -0.2264782677D+00 EUMP2 =    -0.76249748662612D+02
 CCSD(T)
 CCSD(T)= -0.76262523747D+02

 The electronic state is 1-A1.
 Alpha  occ. eigenvalues --  -20.59387  -1.34604  -0.65202  -0.61519  -0.51124
 Alpha virt. eigenvalues --    0.03241   0.05942   0.17176   0.20118   0.21950
 Alpha virt. eigenvalues --    0.23888   0.26694   0.35579   0.36424   0.39441
 Alpha virt. eigenvalues --    0.39910   0.55086   0.62655   0.65613   0.75253

 Mulliken charges:
               1
     1  O   -0.392634
     2  H    0.196317
     3  H    0.196317
 Sum of Mulliken charges =   0.00000

 Dipole moment (field-independent basis, Debye):
    X=             -0.0000    Y=             -0.0000    Z=             -2.3465  Tot=              2.3465
 Quadrupole moment (field-independent basis, Debye-Ang):
   XX=             -7.6752   YY=             -5.1243   ZZ=             -5.6316
   XY=              0.0000   XZ=              0.0000   YZ=              0.0000

 2569402\CCSD=-76.2566803\CCSD(T)=-76.2625237\RMSD=7.910e-09\PG=C02V [C
 Normal termination of Gaussian 16 at Wed Feb  8 14:51:10 2023.
