 Gaussian 16, Revision C.01,
 Gaussian 16:  ES64L-G16RevC.01  3-Jul-2019

 ----------------------------------------
 #P CCSD(T)/aug-cc-pVDZ scf(maxcycle=200)
 ----------------------------------------

 --------------
 Gaussian input
 --------------
 Symbolic Z-matrix:
 Charge =  0 Multiplicity = 1

                         Standard orientation:
 ---------------------------------------------------------------------
 Center     Atomic      Atomic             Coordinates (Angstroms)
 Number     Number       Type             X           Y           Z
 ---------------------------------------------------------------------
      1          8           0        0.000000    0.000000    0.113855
      2          1           0       -0.000000    0.708667   -0.455419
      3          1           0       -0.000000   -0.708667   -0.455419
 ---------------------------------------------------------------------

 SCF Done:  E(RHF) =  -76.0383723970     A.U. after   10 cycles
 E2 =    -0.2152908114D+00 EUMP2 =    -0.76253663208383D+02
 CCSD(T)
 CCSD(T)= -0.76266542246D+02

 The electronic state is 1-A1.
 Alpha  occ. eigenvalues --  -20.56958  -1.38492  -0.74213  -0.59904  -0.51429
 Alpha virt. eigenvalues --    0.03600   0.05832   0.17239   0.19449   0.22567
 Alpha virt. eigenvalues --    0.23044   0.30348   0.34164   0.39047   0.40757
 Alpha virt. eigenvalues --    0.43833   0.54834   0.65826   0.65916   0.83459

 Mulliken charges:
               1
     1  O   -0.184386
     2  H    0.092193
     3  H    0.092193
 Sum of Mulliken charges =  -0.00000

 Dipole moment (field-independent basis, Debye):
    X=             -0.0000    Y=              0.0000    Z=             -1.9910  Tot=              1.9910
 Quadrupole moment (field-independent basis, Debye-Ang):
   XX=             -7.4672   YY=             -4.4697   ZZ=             -6.1749
   XY=              0.0000   XZ=              0.0000   YZ=              0.0000

 .2618506\CCSD=-76.2616634\CCSD(T)=-76.2665422\RMSD=3.780e-09\PG=C02V [
 Normal termination of Gaussian 16 at Wed Feb  8 14:46:56 2023.
