 Gaussian 16, Revision C.01,
 Gaussian 16:  ES64L-G16RevC.01  3-Jul-2019

 ------------------------------------
 #P wB97XD/6-311g** scf(maxcycle=200)
 ------------------------------------

 --------------
 Gaussian input
 --------------
 Symbolic Z-matrix:
 Charge =  0 Multiplicity = 1

                         Standard orientation:
 ---------------------------------------------------------------------
 Center     Atomic      Atomic             Coordinates (Angstroms)
 Number     Number       Type             X           Y           Z
 ---------------------------------------------------------------------
      1          8           0        0.000000    0.126913    0.000000
      2          1           0        0.684803   -0.470855    0.000000
      3          1           0       -0.684803   -0.544448    0.000000
 ---------------------------------------------------------------------

 SCF Done:  E(RwB97XD) =  -76.4178248311     A.U. after   11 cycles

 The electronic state is 1-A'.
 Alpha  occ. eigenvalues --  -19.22633  -1.12372  -0.60021  -0.48529  -0.39127
 Alpha virt. eigenvalues --    0.12033   0.19799   0.46061   0.54853   0.85316
 Alpha virt. eigenvalues --    0.85344   0.96077   1.16266   1.19520   1.39329
 Alpha virt. eigenvalues --    1.49280   1.83876   2.00392   2.20503   2.39748

 Mulliken charges:
               1
     1  O   -0.449353
     2  H    0.225838
     3  H    0.223514
 Sum of Mulliken charges =  -0.00000

 Dipole moment (field-independent basis, Debye):
    X=              0.0458    Y=             -2.2028    Z=              0.0000  Tot=              2.2033
 Quadrupole moment (field-independent basis, Debye-Ang):
   XX=             -4.6851   YY=             -5.7549   ZZ=             -7.1068
   XY=              0.0931   XZ=              0.0000   YZ=              0.0000

 Normal termination of Gaussian 16 at Wed Feb  8 14:40:20 2023.
