 Gaussian 16, Revision C.01,
 Gaussian 16:  ES64L-G16RevC.01  3-Jul-2019

 ----------------------------------------
 #P CCSD(T)/aug-cc-pVTZ scf(maxcycle=200)
 ----------------------------------------

 --------------
 Gaussian input
 --------------
 Symbolic Z-matrix:
 Charge =  0 Multiplicity = 1

                         Standard orientation:
 ---------------------------------------------------------------------
 Center     Atomic      Atomic             Coordinates (Angstroms)
 Number     Number       Type             X           Y           Z
 ---------------------------------------------------------------------
      1          8           0        0.000000    0.000000    0.100999
      2          1           0       -0.000000    0.815268   -0.403996
      3          1           0       -0.000000   -0.815268   -0.403996
 ---------------------------------------------------------------------

 SCF Done:  E(RHF) =  -76.0576718225     A.U. after   10 cycles
 E2 =    -0.2679538382D+00 EUMP2 =    -0.76325625660704D+02
 CCSD(T)
 CCSD(T)= -0.76338926561D+02

 The electronic state is 1-A1.
 Alpha  occ. eigenvalues --  -20.56183  -1.34456  -0.73806  -0.56172  -0.50652
 Alpha virt. eigenvalues --    0.03007   0.04697   0.13741   0.15653   0.17185
 Alpha virt. eigenvalues --    0.18026   0.23130   0.24286   0.26098   0.31359
 Alpha virt. eigenvalues --    0.31989   0.36404   0.43582   0.46617   0.60808

 Mulliken charges:
               1
     1  O   -0.445045
     2  H    0.222522
     3  H    0.222522
 Sum of Mulliken charges =  -0.00000

 Dipole moment (field-independent basis, Debye):
    X=             -0.0000    Y=              0.0000    Z=             -1.7742  Tot=              1.7742
 Quadrupole moment (field-independent basis, Debye-Ang):
   XX=             -7.5855   YY=             -3.7237   ZZ=             -6.6030
   XY=              0.0000   XZ=              0.0000   YZ=              0.0000

 .3308019\CCSD=-76.3303244\CCSD(T)=-76.3389266\RMSD=3.409e-09\PG=C02V [
 Normal termination of Gaussian 16 at Wed Feb  8 13:53:12 2023.
