 Gaussian 16, Revision C.01,
 Gaussian 16:  ES64L-G16RevC.01  3-Jul-2019

 ----------------------------------------
 #P CCSD(T)/aug-cc-pVDZ scf(maxcycle=200)
 ----------------------------------------

 --------------
 Gaussian input
 --------------
 Symbolic Z-matrix:
 Charge =  0 Multiplicity = 1

                         Standard orientation:
 ---------------------------------------------------------------------
 Center     Atomic      Atomic             Coordinates (Angstroms)
 Number     Number       Type             X           Y           Z
 ---------------------------------------------------------------------
      1          8           0       -0.000000    0.000000    0.126380
      2          1           0       -0.000000    0.786628   -0.505520
      3          1           0       -0.000000   -0.786628   -0.505520
 ---------------------------------------------------------------------

 SCF Done:  E(RHF) =  -76.0336910593     A.U. after   10 cycles
 E2 =    -0.2241252619D+00 EUMP2 =    -0.76257816321154D+02
 CCSD(T)
 CCSD(T)= -0.76270915854D+02

 The electronic state is 1-A1.
 Alpha  occ. eigenvalues --  -20.58664  -1.33286  -0.68818  -0.57965  -0.50612
 Alpha virt. eigenvalues --    0.03429   0.05781   0.17475   0.19935   0.21856
 Alpha virt. eigenvalues --    0.23366   0.27458   0.32814   0.38314   0.39261
 Alpha virt. eigenvalues --    0.42310   0.53357   0.63369   0.65291   0.78720

 Mulliken charges:
               1
     1  O   -0.404207
     2  H    0.202103
     3  H    0.202103
 Sum of Mulliken charges =   0.00000

 Dipole moment (field-independent basis, Debye):
    X=             -0.0000    Y=             -0.0000    Z=             -2.0727  Tot=              2.0727
 Quadrupole moment (field-independent basis, Debye-Ang):
   XX=             -7.7059   YY=             -4.2530   ZZ=             -6.2207
   XY=              0.0000   XZ=              0.0000   YZ=             -0.0000

 .2655075\CCSD=-76.2652936\CCSD(T)=-76.2709159\RMSD=8.350e-09\PG=C02V [
 Normal termination of Gaussian 16 at Wed Feb  8 14:51:15 2023.
