 Gaussian 16, Revision C.01,
 Gaussian 16:  ES64L-G16RevC.01  3-Jul-2019

 ----------------------------------------
 #P CCSD(T)/aug-cc-pVTZ scf(maxcycle=200)
 ----------------------------------------

 --------------
 Gaussian input
 --------------
 Symbolic Z-matrix:
 Charge =  0 Multiplicity = 1

                         Standard orientation:
 ---------------------------------------------------------------------
 Center     Atomic      Atomic             Coordinates (Angstroms)
 Number     Number       Type             X           Y           Z
 ---------------------------------------------------------------------
      1          8           0        0.000000    0.000000    0.118732
      2          1           0       -0.000000    0.688368   -0.474927
      3          1           0       -0.000000   -0.688368   -0.474927
 ---------------------------------------------------------------------

 SCF Done:  E(RHF) =  -76.0565076678     A.U. after   10 cycles
 E2 =    -0.2650689556D+00 EUMP2 =    -0.76321576623374D+02
 CCSD(T)
 CCSD(T)= -0.76334851718D+02

 The electronic state is 1-A1.
 Alpha  occ. eigenvalues --  -20.56057  -1.38529  -0.73172  -0.60646  -0.51626
 Alpha virt. eigenvalues --    0.02958   0.04822   0.13506   0.15713   0.17748
 Alpha virt. eigenvalues --    0.18408   0.23019   0.24844   0.26787   0.29721
 Alpha virt. eigenvalues --    0.30853   0.36962   0.44699   0.47536   0.59950

 Mulliken charges:
               1
     1  O   -0.356796
     2  H    0.178398
     3  H    0.178398
 Sum of Mulliken charges =  -0.00000

 Dipole moment (field-independent basis, Debye):
    X=             -0.0000    Y=             -0.0000    Z=             -2.0353  Tot=              2.0353
 Quadrupole moment (field-independent basis, Debye-Ang):
   XX=             -7.4362   YY=             -4.5942   ZZ=             -6.0371
   XY=              0.0000   XZ=              0.0000   YZ=              0.0000

 .3270895\CCSD=-76.3266568\CCSD(T)=-76.3348517\RMSD=2.269e-09\PG=C02V [
 Normal termination of Gaussian 16 at Wed Feb  8 13:48:53 2023.
