 Gaussian 16, Revision C.01,
 Gaussian 16:  ES64L-G16RevC.01  3-Jul-2019

 -----------------------------------
 #P HF/aug-cc-pVDZ scf(maxcycle=200)
 -----------------------------------

 --------------
 Gaussian input
 --------------
 Symbolic Z-matrix:
 Charge =  0 Multiplicity = 1

                         Standard orientation:
 ---------------------------------------------------------------------
 Center     Atomic      Atomic             Coordinates (Angstroms)
 Number     Number       Type             X           Y           Z
 ---------------------------------------------------------------------
      1          8           0        0.000000   -0.000000    0.121116
      2          1           0        0.000000    0.677902   -0.484466
      3          1           0       -0.000000   -0.677902   -0.484466
 ---------------------------------------------------------------------

 SCF Done:  E(RHF) =  -76.0357098755     A.U. after   10 cycles

 The electronic state is 1-A1.
 Alpha  occ. eigenvalues --  -20.57185  -1.39019  -0.72825  -0.61139  -0.51581
 Alpha virt. eigenvalues --    0.03543   0.05883   0.17165   0.19533   0.22583
 Alpha virt. eigenvalues --    0.23207   0.30114   0.35093   0.39377   0.39669
 Alpha virt. eigenvalues --    0.42990   0.55395   0.65633   0.65879   0.82111

 Mulliken charges:
               1
     1  O   -0.181099
     2  H    0.090549
     3  H    0.090549
 Sum of Mulliken charges =   0.00000

 Dipole moment (field-independent basis, Debye):
    X=             -0.0000    Y=              0.0000    Z=             -2.0809  Tot=              2.0809
 Quadrupole moment (field-independent basis, Debye-Ang):
   XX=             -7.4576   YY=             -4.7100   ZZ=             -6.0051
   XY=              0.0000   XZ=              0.0000   YZ=              0.0000

 Normal termination of Gaussian 16 at Mon Feb 20 10:26:38 2023.
