 Gaussian 16, Revision C.01,
 Gaussian 16:  ES64L-G16RevC.01  3-Jul-2019

 ----------------------------------------
 #P CCSD(T)/aug-cc-pVTZ scf(maxcycle=200)
 ----------------------------------------

 --------------
 Gaussian input
 --------------
 Symbolic Z-matrix:
 Charge =  0 Multiplicity = 1

                         Standard orientation:
 ---------------------------------------------------------------------
 Center     Atomic      Atomic             Coordinates (Angstroms)
 Number     Number       Type             X           Y           Z
 ---------------------------------------------------------------------
      1          8           0        0.000000    0.101210    0.000000
      2          1           0        0.784070   -0.358698    0.000000
      3          1           0       -0.784070   -0.450981    0.000000
 ---------------------------------------------------------------------

 SCF Done:  E(RHF) =  -76.0580554483     A.U. after   10 cycles
 E2 =    -0.2660592524D+00 EUMP2 =    -0.76324114700762D+02
 CCSD(T)
 CCSD(T)= -0.76337420829D+02

 The electronic state is 1-A'.
 Alpha  occ. eigenvalues --  -20.55843  -1.35946  -0.74981  -0.56989  -0.50955
 Alpha virt. eigenvalues --    0.03026   0.04720   0.13715   0.15543   0.17318
 Alpha virt. eigenvalues --    0.18074   0.23243   0.24455   0.26208   0.31261
 Alpha virt. eigenvalues --    0.31904   0.36489   0.44101   0.47095   0.60841

 Mulliken charges:
               1
     1  O   -0.395472
     2  H    0.171204
     3  H    0.224268
 Sum of Mulliken charges =  -0.00000

 Dipole moment (field-independent basis, Debye):
    X=              0.0157    Y=             -1.7945    Z=              0.0000  Tot=              1.7945
 Quadrupole moment (field-independent basis, Debye-Ang):
   XX=             -3.8948   YY=             -6.5060   ZZ=             -7.5207
   XY=              0.1747   XZ=              0.0000   YZ=              0.0000

 3295097\CCSD=-76.3290601\CCSD(T)=-76.3374208\RMSD=2.577e-09\PG=CS [SG(
 Normal termination of Gaussian 16 at Wed Feb  8 13:49:56 2023.
