 Gaussian 16, Revision C.01,
 Gaussian 16:  ES64L-G16RevC.01  3-Jul-2019

 ------------------------------
 #P HF/6-31g* scf(maxcycle=200)
 ------------------------------

 --------------
 Gaussian input
 --------------
 Symbolic Z-matrix:
 Charge =  0 Multiplicity = 1

                         Standard orientation:
 ---------------------------------------------------------------------
 Center     Atomic      Atomic             Coordinates (Angstroms)
 Number     Number       Type             X           Y           Z
 ---------------------------------------------------------------------
      1          8           0        0.000000    0.090027    0.000000
      2          1           0        0.817110   -0.308234    0.000000
      3          1           0       -0.817110   -0.411981    0.000000
 ---------------------------------------------------------------------

 SCF Done:  E(RHF) =  -76.0017004431     A.U. after   10 cycles

 The electronic state is 1-A'.
 Alpha  occ. eigenvalues --  -20.54458  -1.33961  -0.75004  -0.53866  -0.49192
 Alpha virt. eigenvalues --    0.21548   0.31046   1.05852   1.14341   1.16998
 Alpha virt. eigenvalues --    1.17304   1.39213   1.41092   2.01381   2.06553
 Alpha virt. eigenvalues --    2.08475   2.71882   2.92689   4.01464

 Mulliken charges:
               1
     1  O   -0.905065
     2  H    0.451346
     3  H    0.453719
 Sum of Mulliken charges =   0.00000

 Dipole moment (field-independent basis, Debye):
    X=              0.0263    Y=             -1.8610    Z=              0.0000  Tot=              1.8612
 Quadrupole moment (field-independent basis, Debye-Ang):
   XX=             -3.4113   YY=             -6.4031   ZZ=             -7.1798
   XY=              0.2101   XZ=              0.0000   YZ=              0.0000

 Normal termination of Gaussian 16 at Wed Feb  8 15:05:21 2023.
