 Gaussian 16, Revision C.01,
 Gaussian 16:  ES64L-G16RevC.01  3-Jul-2019

 ----------------------------------------
 #P CCSD(T)/aug-cc-pVTZ scf(maxcycle=200)
 ----------------------------------------

 --------------
 Gaussian input
 --------------
 Symbolic Z-matrix:
 Charge =  0 Multiplicity = 1

                         Standard orientation:
 ---------------------------------------------------------------------
 Center     Atomic      Atomic             Coordinates (Angstroms)
 Number     Number       Type             X           Y           Z
 ---------------------------------------------------------------------
      1          8           0        0.000000   -0.000000    0.103829
      2          1           0        0.000000    0.806330   -0.415317
      3          1           0       -0.000000   -0.806330   -0.415317
 ---------------------------------------------------------------------

 SCF Done:  E(RHF) =  -76.0586070816     A.U. after   10 cycles
 E2 =    -0.2679942158D+00 EUMP2 =    -0.76326601297487D+02
 CCSD(T)
 CCSD(T)= -0.76339917121D+02

 The electronic state is 1-A1.
 Alpha  occ. eigenvalues --  -20.56284  -1.34587  -0.73479  -0.56548  -0.50717
 Alpha virt. eigenvalues --    0.02998   0.04708   0.13720   0.15688   0.17249
 Alpha virt. eigenvalues --    0.18068   0.23065   0.24329   0.26166   0.31130
 Alpha virt. eigenvalues --    0.31807   0.36433   0.43641   0.46631   0.60647

 Mulliken charges:
               1
     1  O   -0.443583
     2  H    0.221792
     3  H    0.221792
 Sum of Mulliken charges =   0.00000

 Dipole moment (field-independent basis, Debye):
    X=             -0.0000    Y=             -0.0000    Z=             -1.8113  Tot=              1.8113
 Quadrupole moment (field-independent basis, Debye-Ang):
   XX=             -7.5811   YY=             -3.8089   ZZ=             -6.5445
   XY=              0.0000   XZ=              0.0000   YZ=             -0.0000

 .3317902\CCSD=-76.3313131\CCSD(T)=-76.3399171\RMSD=3.520e-09\PG=C02V [
 Normal termination of Gaussian 16 at Wed Feb  8 13:54:33 2023.
