 Gaussian 16, Revision C.01,
 Gaussian 16:  ES64L-G16RevC.01  3-Jul-2019

 ----------------------------------------
 #P CCSD(T)/aug-cc-pVTZ scf(maxcycle=200)
 ----------------------------------------

 --------------
 Gaussian input
 --------------
 Symbolic Z-matrix:
 Charge =  0 Multiplicity = 1

                         Standard orientation:
 ---------------------------------------------------------------------
 Center     Atomic      Atomic             Coordinates (Angstroms)
 Number     Number       Type             X           Y           Z
 ---------------------------------------------------------------------
      1          8           0        0.000000    0.000000    0.132693
      2          1           0        0.000000    0.692458   -0.530771
      3          1           0       -0.000000   -0.692458   -0.530771
 ---------------------------------------------------------------------

 SCF Done:  E(RHF) =  -76.0556385936     A.U. after   10 cycles
 E2 =    -0.2697842546D+00 EUMP2 =    -0.76325422848212D+02
 CCSD(T)
 CCSD(T)= -0.76338635574D+02

 The electronic state is 1-A1.
 Alpha  occ. eigenvalues --  -20.57234  -1.36204  -0.69164  -0.60866  -0.51359
 Alpha virt. eigenvalues --    0.02854   0.04845   0.13386   0.16049   0.17712
 Alpha virt. eigenvalues --    0.18604   0.22363   0.24668   0.26978   0.28869
 Alpha virt. eigenvalues --    0.30425   0.36862   0.43532   0.46565   0.59231

 Mulliken charges:
               1
     1  O   -0.446707
     2  H    0.223354
     3  H    0.223354
 Sum of Mulliken charges =   0.00000

 Dipole moment (field-independent basis, Debye):
    X=             -0.0000    Y=              0.0000    Z=             -2.1719  Tot=              2.1719
 Quadrupole moment (field-independent basis, Debye-Ang):
   XX=             -7.5459   YY=             -4.7780   ZZ=             -5.8723
   XY=              0.0000   XZ=              0.0000   YZ=             -0.0000

 .3303718\CCSD=-76.3298751\CCSD(T)=-76.3386356\RMSD=3.669e-09\PG=C02V [
 Normal termination of Gaussian 16 at Wed Feb  8 13:53:26 2023.
