 Gaussian 16, Revision C.01,
 Gaussian 16:  ES64L-G16RevC.01  3-Jul-2019

 ----------------------------------------
 #P PBE1PBE/aug-cc-pVDZ scf(maxcycle=200)
 ----------------------------------------

 --------------
 Gaussian input
 --------------
 Symbolic Z-matrix:
 Charge =  0 Multiplicity = 1

                         Standard orientation:
 ---------------------------------------------------------------------
 Center     Atomic      Atomic             Coordinates (Angstroms)
 Number     Number       Type             X           Y           Z
 ---------------------------------------------------------------------
      1          8           0        0.000000    0.000000    0.117489
      2          1           0        0.000000    0.758015   -0.469958
      3          1           0       -0.000000   -0.758015   -0.469958
 ---------------------------------------------------------------------

 SCF Done:  E(RPBE1PBE) =  -76.3598965410     A.U. after    8 cycles

 The electronic state is 1-A1.
 Alpha  occ. eigenvalues --  -19.23063  -1.04820  -0.55179  -0.41131  -0.33315
 Alpha virt. eigenvalues --   -0.01196   0.03267   0.11253   0.13180   0.14429
 Alpha virt. eigenvalues --    0.16534   0.19124   0.23813   0.29151   0.30489
 Alpha virt. eigenvalues --    0.33389   0.45325   0.51833   0.53999   0.63887

 Mulliken charges:
               1
     1  O   -0.223035
     2  H    0.111518
     3  H    0.111518
 Sum of Mulliken charges =   0.00000

 Dipole moment (field-independent basis, Debye):
    X=             -0.0000    Y=              0.0000    Z=             -1.8675  Tot=              1.8675
 Quadrupole moment (field-independent basis, Debye-Ang):
   XX=             -7.7480   YY=             -4.4712   ZZ=             -6.4315
   XY=              0.0000   XZ=              0.0000   YZ=             -0.0000

 Normal termination of Gaussian 16 at Mon Mar 20 17:59:10 2023.
