 Gaussian 16, Revision C.01,
 Gaussian 16:  ES64L-G16RevC.01  3-Jul-2019

 ----------------------------------------
 #P CCSD(T)/aug-cc-pVDZ scf(maxcycle=200)
 ----------------------------------------

 --------------
 Gaussian input
 --------------
 Symbolic Z-matrix:
 Charge =  0 Multiplicity = 1

                         Standard orientation:
 ---------------------------------------------------------------------
 Center     Atomic      Atomic             Coordinates (Angstroms)
 Number     Number       Type             X           Y           Z
 ---------------------------------------------------------------------
      1          8           0        0.000000    0.000000    0.112187
      2          1           0        0.000000    0.838708   -0.448749
      3          1           0       -0.000000   -0.838708   -0.448749
 ---------------------------------------------------------------------

 SCF Done:  E(RHF) =  -76.0318891268     A.U. after   10 cycles
 E2 =    -0.2235238354D+00 EUMP2 =    -0.76255412962252D+02
 CCSD(T)
 CCSD(T)= -0.76268532225D+02

 The electronic state is 1-A1.
 Alpha  occ. eigenvalues --  -20.58146  -1.32646  -0.70509  -0.56063  -0.50281
 Alpha virt. eigenvalues --    0.03498   0.05690   0.17598   0.19845   0.21548
 Alpha virt. eigenvalues --    0.23010   0.28202   0.31374   0.37732   0.41259
 Alpha virt. eigenvalues --    0.43843   0.52298   0.63478   0.65136   0.81233

 Mulliken charges:
               1
     1  O   -0.429785
     2  H    0.214893
     3  H    0.214893
 Sum of Mulliken charges =  -0.00000

 Dipole moment (field-independent basis, Debye):
    X=             -0.0000    Y=              0.0000    Z=             -1.8986  Tot=              1.8986
 Quadrupole moment (field-independent basis, Debye-Ang):
   XX=             -7.7282   YY=             -3.7703   ZZ=             -6.5482
   XY=              0.0000   XZ=              0.0000   YZ=             -0.0000

 2631764\CCSD=-76.2629594\CCSD(T)=-76.2685322\RMSD=7.959e-09\PG=C02V [C
 Normal termination of Gaussian 16 at Wed Feb  8 14:51:32 2023.
