 Gaussian 16, Revision C.01,
 Gaussian 16:  ES64L-G16RevC.01  3-Jul-2019

 ------------------------------
 #P HF/6-31g* scf(maxcycle=200)
 ------------------------------

 --------------
 Gaussian input
 --------------
 Symbolic Z-matrix:
 Charge =  0 Multiplicity = 1

                         Standard orientation:
 ---------------------------------------------------------------------
 Center     Atomic      Atomic             Coordinates (Angstroms)
 Number     Number       Type             X           Y           Z
 ---------------------------------------------------------------------
      1          8           0        0.000000    0.000000    0.112187
      2          1           0        0.000000    0.838708   -0.448749
      3          1           0       -0.000000   -0.838708   -0.448749
 ---------------------------------------------------------------------

 SCF Done:  E(RHF) =  -76.0015122029     A.U. after   10 cycles

 The electronic state is 1-A1.
 Alpha  occ. eigenvalues --  -20.56501  -1.31052  -0.69167  -0.54560  -0.49098
 Alpha virt. eigenvalues --    0.19824   0.29135   1.03694   1.05557   1.15330
 Alpha virt. eigenvalues --    1.17057   1.37775   1.40042   2.04092   2.05464
 Alpha virt. eigenvalues --    2.08540   2.57832   2.85011   3.95656

 Mulliken charges:
               1
     1  O   -0.875143
     2  H    0.437572
     3  H    0.437572
 Sum of Mulliken charges =  -0.00000

 Dipole moment (field-independent basis, Debye):
    X=             -0.0000    Y=              0.0000    Z=             -2.1202  Tot=              2.1202
 Quadrupole moment (field-independent basis, Debye-Ang):
   XX=             -7.3330   YY=             -3.6276   ZZ=             -6.2181
   XY=              0.0000   XZ=              0.0000   YZ=             -0.0000

 Normal termination of Gaussian 16 at Wed Feb  8 15:07:31 2023.
