 Gaussian 16, Revision C.01,
 Gaussian 16:  ES64L-G16RevC.01  3-Jul-2019

 ----------------------------------------
 #P CCSD(T)/aug-cc-pVTZ scf(maxcycle=200)
 ----------------------------------------

 --------------
 Gaussian input
 --------------
 Symbolic Z-matrix:
 Charge =  0 Multiplicity = 1

                         Standard orientation:
 ---------------------------------------------------------------------
 Center     Atomic      Atomic             Coordinates (Angstroms)
 Number     Number       Type             X           Y           Z
 ---------------------------------------------------------------------
      1          8           0        0.000000   -0.000000    0.117973
      2          1           0       -0.000000    0.818621   -0.471892
      3          1           0       -0.000000   -0.818621   -0.471892
 ---------------------------------------------------------------------

 SCF Done:  E(RHF) =  -76.0520103119     A.U. after   10 cycles
 E2 =    -0.2722656579D+00 EUMP2 =    -0.76324275969796D+02
 CCSD(T)
 CCSD(T)= -0.76337687488D+02

 The electronic state is 1-A1.
 Alpha  occ. eigenvalues --  -20.57405  -1.32598  -0.69709  -0.56756  -0.50509
 Alpha virt. eigenvalues --    0.02895   0.04720   0.13614   0.16046   0.17206
 Alpha virt. eigenvalues --    0.18184   0.22415   0.24231   0.26337   0.30239
 Alpha virt. eigenvalues --    0.31125   0.36386   0.42669   0.45670   0.59959

 Mulliken charges:
               1
     1  O   -0.511712
     2  H    0.255856
     3  H    0.255856
 Sum of Mulliken charges =   0.00000

 Dipole moment (field-independent basis, Debye):
    X=             -0.0000    Y=              0.0000    Z=             -1.9552  Tot=              1.9552
 Quadrupole moment (field-independent basis, Debye-Ang):
   XX=             -7.6830   YY=             -3.9315   ZZ=             -6.4003
   XY=              0.0000   XZ=              0.0000   YZ=             -0.0000

 290833\CCSD=-76.32855\CCSD(T)=-76.3376875\RMSD=6.128e-09\PG=C02V [C2(O
 Normal termination of Gaussian 16 at Wed Feb  8 13:59:08 2023.
