 Gaussian 16, Revision C.01,
 Gaussian 16:  ES64L-G16RevC.01  3-Jul-2019

 ------------------------------
 #P HF/6-31g* scf(maxcycle=200)
 ------------------------------

 --------------
 Gaussian input
 --------------
 Symbolic Z-matrix:
 Charge =  0 Multiplicity = 1

                         Standard orientation:
 ---------------------------------------------------------------------
 Center     Atomic      Atomic             Coordinates (Angstroms)
 Number     Number       Type             X           Y           Z
 ---------------------------------------------------------------------
      1          8           0        0.000000   -0.000000    0.098138
      2          1           0        0.000000    0.823957   -0.392552
      3          1           0       -0.000000   -0.823957   -0.392552
 ---------------------------------------------------------------------

 SCF Done:  E(RHF) =  -76.0056967337     A.U. after   10 cycles

 The electronic state is 1-A1.
 Alpha  occ. eigenvalues --  -20.55181  -1.32928  -0.72878  -0.54230  -0.49153
 Alpha virt. eigenvalues --    0.21023   0.30485   1.06699   1.09875   1.16141
 Alpha virt. eigenvalues --    1.17221   1.39392   1.39506   2.02395   2.06050
 Alpha virt. eigenvalues --    2.08430   2.66840   2.90711   3.99320

 Mulliken charges:
               1
     1  O   -0.897002
     2  H    0.448501
     3  H    0.448501
 Sum of Mulliken charges =  -0.00000

 Dipole moment (field-independent basis, Debye):
    X=             -0.0000    Y=              0.0000    Z=             -1.9648  Tot=              1.9648
 Quadrupole moment (field-independent basis, Debye-Ang):
   XX=             -7.2318   YY=             -3.4890   ZZ=             -6.3439
   XY=              0.0000   XZ=              0.0000   YZ=              0.0000

 Normal termination of Gaussian 16 at Wed Feb  8 15:06:21 2023.
