 Gaussian 16, Revision C.01,
 Gaussian 16:  ES64L-G16RevC.01  3-Jul-2019

 ---------------------------------
 #P B3LYP/6-31g* scf(maxcycle=200)
 ---------------------------------

 --------------
 Gaussian input
 --------------
 Symbolic Z-matrix:
 Charge =  0 Multiplicity = 1

                         Standard orientation:
 ---------------------------------------------------------------------
 Center     Atomic      Atomic             Coordinates (Angstroms)
 Number     Number       Type             X           Y           Z
 ---------------------------------------------------------------------
      1          8           0        0.000000    0.000000    0.087513
      2          1           0       -0.000000    0.796754   -0.350053
      3          1           0       -0.000000   -0.796754   -0.350053
 ---------------------------------------------------------------------

 SCF Done:  E(RB3LYP) =  -76.3952644625     A.U. after    9 cycles

 The electronic state is 1-A1.
 Alpha  occ. eigenvalues --  -19.11779  -1.00834  -0.57143  -0.33959  -0.28989
 Alpha virt. eigenvalues --    0.07981   0.17066   0.82762   0.89324   0.89454
 Alpha virt. eigenvalues --    0.90297   1.09997   1.16927   1.71659   1.77232
 Alpha virt. eigenvalues --    1.79286   2.42617   2.61354   3.61639

 Mulliken charges:
               1
     1  O   -0.813122
     2  H    0.406561
     3  H    0.406561
 Sum of Mulliken charges =   0.00000

 Dipole moment (field-independent basis, Debye):
    X=             -0.0000    Y=              0.0000    Z=             -1.7423  Tot=              1.7423
 Quadrupole moment (field-independent basis, Debye-Ang):
   XX=             -7.0790   YY=             -3.6265   ZZ=             -6.3839
   XY=              0.0000   XZ=              0.0000   YZ=              0.0000

 Normal termination of Gaussian 16 at Wed Feb  8 14:49:57 2023.
