 Gaussian 16, Revision C.01,
 Gaussian 16:  ES64L-G16RevC.01  3-Jul-2019

 ------------------------------------
 #P wB97XD/6-311g** scf(maxcycle=200)
 ------------------------------------

 --------------
 Gaussian input
 --------------
 Symbolic Z-matrix:
 Charge =  0 Multiplicity = 1

                         Standard orientation:
 ---------------------------------------------------------------------
 Center     Atomic      Atomic             Coordinates (Angstroms)
 Number     Number       Type             X           Y           Z
 ---------------------------------------------------------------------
      1          8           0        0.000000    0.124503    0.000000
      2          1           0        0.695735   -0.460504    0.000000
      3          1           0       -0.695735   -0.535522    0.000000
 ---------------------------------------------------------------------

 SCF Done:  E(RwB97XD) =  -76.4188502177     A.U. after   12 cycles

 The electronic state is 1-A'.
 Alpha  occ. eigenvalues --  -19.22542  -1.12179  -0.60437  -0.48116  -0.39072
 Alpha virt. eigenvalues --    0.12109   0.19787   0.46297   0.54567   0.85250
 Alpha virt. eigenvalues --    0.85343   0.95982   1.16013   1.21722   1.38515
 Alpha virt. eigenvalues --    1.50565   1.82396   2.01104   2.20029   2.39273

 Mulliken charges:
               1
     1  O   -0.455969
     2  H    0.229086
     3  H    0.226884
 Sum of Mulliken charges =   0.00000

 Dipole moment (field-independent basis, Debye):
    X=              0.0453    Y=             -2.1804    Z=              0.0000  Tot=              2.1809
 Quadrupole moment (field-independent basis, Debye-Ang):
   XX=             -4.6020   YY=             -5.8066   ZZ=             -7.1082
   XY=              0.0987   XZ=              0.0000   YZ=              0.0000

 Normal termination of Gaussian 16 at Wed Feb  8 14:40:15 2023.
