 Gaussian 16, Revision C.01,
 Gaussian 16:  ES64L-G16RevC.01  3-Jul-2019

 ------------------------------------
 #P wB97XD/6-311g** scf(maxcycle=200)
 ------------------------------------

 --------------
 Gaussian input
 --------------
 Symbolic Z-matrix:
 Charge =  0 Multiplicity = 1

                         Standard orientation:
 ---------------------------------------------------------------------
 Center     Atomic      Atomic             Coordinates (Angstroms)
 Number     Number       Type             X           Y           Z
 ---------------------------------------------------------------------
      1          8           0       -0.000000   -0.000000    0.134441
      2          1           0       -0.000000    0.752479   -0.537762
      3          1           0       -0.000000   -0.752479   -0.537762
 ---------------------------------------------------------------------

 SCF Done:  E(RwB97XD) =  -76.4179592171     A.U. after   12 cycles

 The electronic state is 1-A1.
 Alpha  occ. eigenvalues --  -19.23828  -1.08829  -0.57778  -0.47489  -0.38508
 Alpha virt. eigenvalues --    0.10630   0.18015   0.43118   0.49701   0.85390
 Alpha virt. eigenvalues --    0.85887   0.94956   1.16981   1.23535   1.36755
 Alpha virt. eigenvalues --    1.49759   1.75709   1.92646   2.10204   2.36738

 Mulliken charges:
               1
     1  O   -0.464795
     2  H    0.232397
     3  H    0.232397
 Sum of Mulliken charges =  -0.00000

 Dipole moment (field-independent basis, Debye):
    X=             -0.0000    Y=             -0.0000    Z=             -2.2226  Tot=              2.2226
 Quadrupole moment (field-independent basis, Debye-Ang):
   XX=             -7.2717   YY=             -4.5075   ZZ=             -5.8205
   XY=              0.0000   XZ=              0.0000   YZ=             -0.0000

 Normal termination of Gaussian 16 at Wed Feb  8 14:42:53 2023.
