 Gaussian 16, Revision C.01,
 Gaussian 16:  ES64L-G16RevC.01  3-Jul-2019

 -----------------------------------
 #P HF/aug-cc-pVDZ scf(maxcycle=200)
 -----------------------------------

 --------------
 Gaussian input
 --------------
 Symbolic Z-matrix:
 Charge =  0 Multiplicity = 1

                         Standard orientation:
 ---------------------------------------------------------------------
 Center     Atomic      Atomic             Coordinates (Angstroms)
 Number     Number       Type             X           Y           Z
 ---------------------------------------------------------------------
      1          8           0        0.000000    0.092742    0.000000
      2          1           0        0.834542   -0.267564    0.000000
      3          1           0       -0.834542   -0.474374    0.000000
 ---------------------------------------------------------------------

 SCF Done:  E(RHF) =  -76.0293375488     A.U. after   10 cycles

 The electronic state is 1-A'.
 Alpha  occ. eigenvalues --  -20.56779  -1.34619  -0.74925  -0.55056  -0.50384
 Alpha virt. eigenvalues --    0.03639   0.05639   0.17604   0.19470   0.21545
 Alpha virt. eigenvalues --    0.22597   0.29574   0.31497   0.37561   0.44161
 Alpha virt. eigenvalues --    0.46298   0.51988   0.63797   0.66278   0.84560

 Mulliken charges:
               1
     1  O   -0.356110
     2  H    0.116874
     3  H    0.239236
 Sum of Mulliken charges =   0.00000

 Dipole moment (field-independent basis, Debye):
    X=              0.0201    Y=             -1.6831    Z=              0.0000  Tot=              1.6832
 Quadrupole moment (field-independent basis, Debye-Ang):
   XX=             -3.5488   YY=             -6.7421   ZZ=             -7.6323
   XY=              0.4415   XZ=              0.0000   YZ=              0.0000

 Normal termination of Gaussian 16 at Mon Feb 20 10:15:26 2023.
