 Gaussian 16, Revision C.01,
 Gaussian 16:  ES64L-G16RevC.01  3-Jul-2019

 ----------------------------------------
 #P PBE1PBE/aug-cc-pVDZ scf(maxcycle=200)
 ----------------------------------------

 --------------
 Gaussian input
 --------------
 Symbolic Z-matrix:
 Charge =  0 Multiplicity = 1

                         Standard orientation:
 ---------------------------------------------------------------------
 Center     Atomic      Atomic             Coordinates (Angstroms)
 Number     Number       Type             X           Y           Z
 ---------------------------------------------------------------------
      1          8           0        0.000000    0.106619    0.000000
      2          1           0        0.826173   -0.472621   -0.000000
      3          1           0       -0.826173   -0.380330    0.000000
 ---------------------------------------------------------------------

 SCF Done:  E(RPBE1PBE) =  -76.3553079177     A.U. after    9 cycles

 The electronic state is 1-A'.
 Alpha  occ. eigenvalues --  -19.22999  -1.03162  -0.55848  -0.39051  -0.32897
 Alpha virt. eigenvalues --   -0.01368   0.03049   0.11169   0.13154   0.13553
 Alpha virt. eigenvalues --    0.16006   0.19449   0.22315   0.28330   0.32074
 Alpha virt. eigenvalues --    0.34593   0.43778   0.50677   0.53371   0.65763

 Mulliken charges:
               1
     1  O   -0.301339
     2  H    0.178096
     3  H    0.123243
 Sum of Mulliken charges =  -0.00000

 Dipole moment (field-independent basis, Debye):
    X=             -0.0173    Y=             -1.7214    Z=             -0.0000  Tot=              1.7215
 Quadrupole moment (field-independent basis, Debye-Ang):
   XX=             -3.9945   YY=             -6.7420   ZZ=             -7.8324
   XY=             -0.1769   XZ=             -0.0000   YZ=              0.0000

 Normal termination of Gaussian 16 at Mon Mar 20 17:35:30 2023.
