 Gaussian 16, Revision C.01,
 Gaussian 16:  ES64L-G16RevC.01  3-Jul-2019

 ----------------------------------------
 #P PBE1PBE/aug-cc-pVDZ scf(maxcycle=200)
 ----------------------------------------

 --------------
 Gaussian input
 --------------
 Symbolic Z-matrix:
 Charge =  0 Multiplicity = 1

                         Standard orientation:
 ---------------------------------------------------------------------
 Center     Atomic      Atomic             Coordinates (Angstroms)
 Number     Number       Type             X           Y           Z
 ---------------------------------------------------------------------
      1          8           0        0.000000    0.106621    0.000000
      2          1           0        0.766067   -0.382686    0.000000
      3          1           0       -0.766067   -0.470286    0.000000
 ---------------------------------------------------------------------

 SCF Done:  E(RPBE1PBE) =  -76.3563205485     A.U. after    8 cycles

 The electronic state is 1-A'.
 Alpha  occ. eigenvalues --  -19.22420  -1.05581  -0.57295  -0.40248  -0.33419
 Alpha virt. eigenvalues --   -0.00958   0.03315   0.11398   0.13062   0.14421
 Alpha virt. eigenvalues --    0.16783   0.20045   0.23391   0.29029   0.32039
 Alpha virt. eigenvalues --    0.34681   0.45132   0.52422   0.54680   0.66035

 Mulliken charges:
               1
     1  O   -0.179576
     2  H    0.062241
     3  H    0.117335
 Sum of Mulliken charges =  -0.00000

 Dipole moment (field-independent basis, Debye):
    X=              0.0210    Y=             -1.7656    Z=              0.0000  Tot=              1.7657
 Quadrupole moment (field-independent basis, Debye-Ang):
   XX=             -4.2915   YY=             -6.5752   ZZ=             -7.6973
   XY=              0.1551   XZ=              0.0000   YZ=              0.0000

 Normal termination of Gaussian 16 at Mon Mar 20 17:33:28 2023.
