 Gaussian 16, Revision C.01,
 Gaussian 16:  ES64L-G16RevC.01  3-Jul-2019

 ------------------------------
 #P HF/6-31g* scf(maxcycle=200)
 ------------------------------

 --------------
 Gaussian input
 --------------
 Symbolic Z-matrix:
 Charge =  0 Multiplicity = 1

                         Standard orientation:
 ---------------------------------------------------------------------
 Center     Atomic      Atomic             Coordinates (Angstroms)
 Number     Number       Type             X           Y           Z
 ---------------------------------------------------------------------
      1          8           0        0.000000    0.000000    0.095247
      2          1           0        0.000000    0.832395   -0.380988
      3          1           0       -0.000000   -0.832395   -0.380988
 ---------------------------------------------------------------------

 SCF Done:  E(RHF) =  -76.0042466610     A.U. after   10 cycles

 The electronic state is 1-A1.
 Alpha  occ. eigenvalues --  -20.55038  -1.32768  -0.73156  -0.53834  -0.49055
 Alpha virt. eigenvalues --    0.20985   0.30497   1.05456   1.11172   1.16275
 Alpha virt. eigenvalues --    1.17291   1.38996   1.39775   2.02261   2.06558
 Alpha virt. eigenvalues --    2.08657   2.68090   2.89235   3.99618

 Mulliken charges:
               1
     1  O   -0.902113
     2  H    0.451056
     3  H    0.451056
 Sum of Mulliken charges =  -0.00000

 Dipole moment (field-independent basis, Debye):
    X=             -0.0000    Y=              0.0000    Z=             -1.9238  Tot=              1.9238
 Quadrupole moment (field-independent basis, Debye-Ang):
   XX=             -7.2326   YY=             -3.3994   ZZ=             -6.3936
   XY=              0.0000   XZ=              0.0000   YZ=             -0.0000

 Normal termination of Gaussian 16 at Wed Feb  8 15:06:22 2023.
