 Gaussian 16, Revision C.01,
 Gaussian 16:  ES64L-G16RevC.01  3-Jul-2019

 -----------------------------------
 #P HF/aug-cc-pVDZ scf(maxcycle=200)
 -----------------------------------

 --------------
 Gaussian input
 --------------
 Symbolic Z-matrix:
 Charge =  0 Multiplicity = 1

                         Standard orientation:
 ---------------------------------------------------------------------
 Center     Atomic      Atomic             Coordinates (Angstroms)
 Number     Number       Type             X           Y           Z
 ---------------------------------------------------------------------
      1          8           0        0.000000    0.136159   -0.000000
      2          1           0        0.639004   -0.578933    0.000000
      3          1           0       -0.639004   -0.510336   -0.000000
 ---------------------------------------------------------------------

 SCF Done:  E(RHF) =  -76.0285592624     A.U. after   10 cycles

 The electronic state is 1-A'.
 Alpha  occ. eigenvalues --  -20.57987  -1.38548  -0.69134  -0.62673  -0.51621
 Alpha virt. eigenvalues --    0.03393   0.05962   0.17071   0.19780   0.22401
 Alpha virt. eigenvalues --    0.23553   0.29087   0.36295   0.37740   0.39711
 Alpha virt. eigenvalues --    0.41391   0.55945   0.64403   0.65994   0.78936

 Mulliken charges:
               1
     1  O   -0.241807
     2  H    0.145261
     3  H    0.096546
 Sum of Mulliken charges =   0.00000

 Dipole moment (field-independent basis, Debye):
    X=             -0.0323    Y=             -2.2463    Z=              0.0000  Tot=              2.2465
 Quadrupole moment (field-independent basis, Debye-Ang):
   XX=             -5.0973   YY=             -5.7148   ZZ=             -7.5040
   XY=             -0.0854   XZ=              0.0000   YZ=             -0.0000

 Normal termination of Gaussian 16 at Mon Feb 20 10:27:38 2023.
