 Gaussian 16, Revision C.01,
 Gaussian 16:  ES64L-G16RevC.01  3-Jul-2019

 ------------------------------
 #P HF/6-31g* scf(maxcycle=200)
 ------------------------------

 --------------
 Gaussian input
 --------------
 Symbolic Z-matrix:
 Charge =  0 Multiplicity = 1

                         Standard orientation:
 ---------------------------------------------------------------------
 Center     Atomic      Atomic             Coordinates (Angstroms)
 Number     Number       Type             X           Y           Z
 ---------------------------------------------------------------------
      1          8           0        0.000000    0.133701    0.000000
      2          1           0        0.721544   -0.498007    0.000000
      3          1           0       -0.721544   -0.571604    0.000000
 ---------------------------------------------------------------------

 SCF Done:  E(RHF) =  -76.0040643030     A.U. after   10 cycles

 The electronic state is 1-A'.
 Alpha  occ. eigenvalues --  -20.57105  -1.33771  -0.67393  -0.58651  -0.50035
 Alpha virt. eigenvalues --    0.20203   0.29521   0.97213   1.12790   1.16493
 Alpha virt. eigenvalues --    1.17337   1.36520   1.47566   2.00227   2.04699
 Alpha virt. eigenvalues --    2.06112   2.59892   2.87346   3.93723

 Mulliken charges:
               1
     1  O   -0.843941
     2  H    0.426607
     3  H    0.417333
 Sum of Mulliken charges =   0.00000

 Dipole moment (field-independent basis, Debye):
    X=              0.0488    Y=             -2.4143    Z=              0.0000  Tot=              2.4148
 Quadrupole moment (field-independent basis, Debye-Ang):
   XX=             -4.5737   YY=             -5.6939   ZZ=             -7.2835
   XY=              0.0967   XZ=              0.0000   YZ=              0.0000

 Normal termination of Gaussian 16 at Wed Feb  8 15:06:20 2023.
