 Gaussian 16, Revision C.01,
 Gaussian 16:  ES64L-G16RevC.01  3-Jul-2019

 ------------------------------------
 #P wB97XD/6-311g** scf(maxcycle=200)
 ------------------------------------

 --------------
 Gaussian input
 --------------
 Symbolic Z-matrix:
 Charge =  0 Multiplicity = 1

                         Standard orientation:
 ---------------------------------------------------------------------
 Center     Atomic      Atomic             Coordinates (Angstroms)
 Number     Number       Type             X           Y           Z
 ---------------------------------------------------------------------
      1          8           0        0.000000    0.123310    0.000000
      2          1           0        0.766259   -0.453342    0.000000
      3          1           0       -0.766259   -0.533141    0.000000
 ---------------------------------------------------------------------

 SCF Done:  E(RwB97XD) =  -76.4209893593     A.U. after   12 cycles

 The electronic state is 1-A'.
 Alpha  occ. eigenvalues --  -19.23102  -1.09423  -0.59717  -0.46467  -0.38506
 Alpha virt. eigenvalues --    0.11263   0.18693   0.44725   0.50302   0.85378
 Alpha virt. eigenvalues --    0.85490   0.94975   1.15997   1.31374   1.35234
 Alpha virt. eigenvalues --    1.53337   1.73603   1.97264   2.13003   2.37562

 Mulliken charges:
               1
     1  O   -0.483606
     2  H    0.242045
     3  H    0.241562
 Sum of Mulliken charges =  -0.00000

 Dipole moment (field-independent basis, Debye):
    X=              0.0440    Y=             -2.1361    Z=              0.0000  Tot=              2.1365
 Quadrupole moment (field-independent basis, Debye-Ang):
   XX=             -4.2696   YY=             -5.9790   ZZ=             -7.2234
   XY=              0.1196   XZ=              0.0000   YZ=              0.0000

 Normal termination of Gaussian 16 at Wed Feb  8 14:41:50 2023.
