 Gaussian 16, Revision C.01,
 Gaussian 16:  ES64L-G16RevC.01  3-Jul-2019

 ----------------------------------------
 #P CCSD(T)/aug-cc-pVTZ scf(maxcycle=200)
 ----------------------------------------

 --------------
 Gaussian input
 --------------
 Symbolic Z-matrix:
 Charge =  0 Multiplicity = 1

                         Standard orientation:
 ---------------------------------------------------------------------
 Center     Atomic      Atomic             Coordinates (Angstroms)
 Number     Number       Type             X           Y           Z
 ---------------------------------------------------------------------
      1          8           0        0.000000    0.109279   -0.000000
      2          1           0        0.756707   -0.479852   -0.000000
      3          1           0       -0.756707   -0.394383    0.000000
 ---------------------------------------------------------------------

 SCF Done:  E(RHF) =  -76.0595239124     A.U. after   10 cycles
 E2 =    -0.2662679277D+00 EUMP2 =    -0.76325791840066D+02
 CCSD(T)
 CCSD(T)= -0.76339122580D+02

 The electronic state is 1-A'.
 Alpha  occ. eigenvalues --  -20.56116  -1.36371  -0.73878  -0.58146  -0.51131
 Alpha virt. eigenvalues --    0.02994   0.04754   0.13647   0.15656   0.17476
 Alpha virt. eigenvalues --    0.18205   0.23073   0.24565   0.26411   0.30604
 Alpha virt. eigenvalues --    0.31410   0.36599   0.44177   0.47162   0.60403

 Mulliken charges:
               1
     1  O   -0.395111
     2  H    0.223899
     3  H    0.171213
 Sum of Mulliken charges =  -0.00000

 Dipole moment (field-independent basis, Debye):
    X=             -0.0199    Y=             -1.8988    Z=              0.0000  Tot=              1.8989
 Quadrupole moment (field-independent basis, Debye-Ang):
   XX=             -4.1390   YY=             -6.3353   ZZ=             -7.5094
   XY=             -0.1495   XZ=             -0.0000   YZ=              0.0000

 .3311973\CCSD=-76.3307472\CCSD(T)=-76.3391226\RMSD=2.750e-09\PG=CS [SG
 Normal termination of Gaussian 16 at Wed Feb  8 13:51:46 2023.
