 Gaussian 16, Revision C.01,
 Gaussian 16:  ES64L-G16RevC.01  3-Jul-2019

 ----------------------------------------
 #P CCSD(T)/aug-cc-pVTZ scf(maxcycle=200)
 ----------------------------------------

 --------------
 Gaussian input
 --------------
 Symbolic Z-matrix:
 Charge =  0 Multiplicity = 1

                         Standard orientation:
 ---------------------------------------------------------------------
 Center     Atomic      Atomic             Coordinates (Angstroms)
 Number     Number       Type             X           Y           Z
 ---------------------------------------------------------------------
      1          8           0        0.000000    0.000000    0.090281
      2          1           0        0.000000    0.788996   -0.361124
      3          1           0       -0.000000   -0.788996   -0.361124
 ---------------------------------------------------------------------

 SCF Done:  E(RHF) =  -76.0547624632     A.U. after   10 cycles
 E2 =    -0.2641539659D+00 EUMP2 =    -0.76318916429062D+02
 CCSD(T)
 CCSD(T)= -0.76332144177D+02

 The electronic state is 1-A1.
 Alpha  occ. eigenvalues --  -20.55142  -1.36834  -0.77574  -0.56318  -0.51030
 Alpha virt. eigenvalues --    0.03087   0.04699   0.13765   0.15278   0.17265
 Alpha virt. eigenvalues --    0.17924   0.23603   0.24427   0.26075   0.32078
 Alpha virt. eigenvalues --    0.32589   0.36423   0.44747   0.47140   0.61633

 Mulliken charges:
               1
     1  O   -0.348450
     2  H    0.174225
     3  H    0.174225
 Sum of Mulliken charges =  -0.00000

 Dipole moment (field-independent basis, Debye):
    X=             -0.0000    Y=              0.0000    Z=             -1.6638  Tot=              1.6638
 Quadrupole moment (field-independent basis, Debye-Ang):
   XX=             -7.4721   YY=             -3.7366   ZZ=             -6.6486
   XY=              0.0000   XZ=              0.0000   YZ=             -0.0000

 244452\CCSD=-76.3240184\CCSD(T)=-76.3321442\RMSD=2.041e-09\PG=C02V [C2
 Normal termination of Gaussian 16 at Wed Feb  8 13:48:57 2023.
