 Gaussian 16, Revision C.01,
 Gaussian 16:  ES64L-G16RevC.01  3-Jul-2019

 ----------------------------------------
 #P CCSD(T)/aug-cc-pVTZ scf(maxcycle=200)
 ----------------------------------------

 --------------
 Gaussian input
 --------------
 Symbolic Z-matrix:
 Charge =  0 Multiplicity = 1

                         Standard orientation:
 ---------------------------------------------------------------------
 Center     Atomic      Atomic             Coordinates (Angstroms)
 Number     Number       Type             X           Y           Z
 ---------------------------------------------------------------------
      1          8           0        0.000000    0.109702    0.000000
      2          1           0        0.783374   -0.351390    0.000000
      3          1           0       -0.783374   -0.526227    0.000000
 ---------------------------------------------------------------------

 SCF Done:  E(RHF) =  -76.0549076777     A.U. after   10 cycles
 E2 =    -0.2681082610D+00 EUMP2 =    -0.76323015938671D+02
 CCSD(T)
 CCSD(T)= -0.76336407010D+02

 The electronic state is 1-A'.
 Alpha  occ. eigenvalues --  -20.56423  -1.35098  -0.72852  -0.57242  -0.50862
 Alpha virt. eigenvalues --    0.02965   0.04735   0.13651   0.15741   0.17248
 Alpha virt. eigenvalues --    0.18205   0.22886   0.24436   0.26316   0.30710
 Alpha virt. eigenvalues --    0.31457   0.36496   0.43226   0.47048   0.60343

 Mulliken charges:
               1
     1  O   -0.431135
     2  H    0.170580
     3  H    0.260556
 Sum of Mulliken charges =  -0.00000

 Dipole moment (field-independent basis, Debye):
    X=              0.0361    Y=             -1.8867    Z=              0.0000  Tot=              1.8870
 Quadrupole moment (field-independent basis, Debye-Ang):
   XX=             -4.0070   YY=             -6.3866   ZZ=             -7.5705
   XY=              0.3189   XZ=              0.0000   YZ=              0.0000

 .3282615\CCSD=-76.3277898\CCSD(T)=-76.336407\RMSD=4.075e-09\PG=CS [SG(
 Normal termination of Gaussian 16 at Wed Feb  8 13:50:41 2023.
