 Gaussian 16, Revision C.01,
 Gaussian 16:  ES64L-G16RevC.01  3-Jul-2019

 ---------------------------------
 #P B3LYP/6-31g* scf(maxcycle=200)
 ---------------------------------

 --------------
 Gaussian input
 --------------
 Symbolic Z-matrix:
 Charge =  0 Multiplicity = 1

                         Standard orientation:
 ---------------------------------------------------------------------
 Center     Atomic      Atomic             Coordinates (Angstroms)
 Number     Number       Type             X           Y           Z
 ---------------------------------------------------------------------
      1          8           0        0.000000    0.109702    0.000000
      2          1           0        0.783374   -0.351390    0.000000
      3          1           0       -0.783374   -0.526227    0.000000
 ---------------------------------------------------------------------

 SCF Done:  E(RB3LYP) =  -76.4026269234     A.U. after    9 cycles

 The electronic state is 1-A'.
 Alpha  occ. eigenvalues --  -19.13241  -0.99842  -0.53175  -0.35902  -0.28975
 Alpha virt. eigenvalues --    0.06235   0.15503   0.78175   0.87488   0.89151
 Alpha virt. eigenvalues --    0.89248   1.07789   1.17569   1.73833   1.74742
 Alpha virt. eigenvalues --    1.78671   2.28404   2.61590   3.57040

 Mulliken charges:
               1
     1  O   -0.785931
     2  H    0.399052
     3  H    0.386880
 Sum of Mulliken charges =  -0.00000

 Dipole moment (field-independent basis, Debye):
    X=              0.0885    Y=             -1.9821    Z=              0.0000  Tot=              1.9840
 Quadrupole moment (field-independent basis, Debye-Ang):
   XX=             -4.0250   YY=             -6.1204   ZZ=             -7.1807
   XY=              0.2793   XZ=              0.0000   YZ=              0.0000

 Normal termination of Gaussian 16 at Wed Feb  8 14:50:30 2023.
