 Gaussian 16, Revision C.01,
 Gaussian 16:  ES64L-G16RevC.01  3-Jul-2019

 ---------------------------------
 #P B3LYP/6-31g* scf(maxcycle=200)
 ---------------------------------

 --------------
 Gaussian input
 --------------
 Symbolic Z-matrix:
 Charge =  0 Multiplicity = 1

                         Standard orientation:
 ---------------------------------------------------------------------
 Center     Atomic      Atomic             Coordinates (Angstroms)
 Number     Number       Type             X           Y           Z
 ---------------------------------------------------------------------
      1          8           0        0.000000   -0.000000    0.098138
      2          1           0        0.000000    0.823957   -0.392552
      3          1           0       -0.000000   -0.823957   -0.392552
 ---------------------------------------------------------------------

 SCF Done:  E(RB3LYP) =  -76.4036602636     A.U. after    9 cycles

 The electronic state is 1-A1.
 Alpha  occ. eigenvalues --  -19.12796  -0.98945  -0.54344  -0.34298  -0.28654
 Alpha virt. eigenvalues --    0.06486   0.15527   0.80419   0.84411   0.89420
 Alpha virt. eigenvalues --    0.89457   1.08614   1.15544   1.73336   1.77089
 Alpha virt. eigenvalues --    1.79582   2.33637   2.56110   3.58059

 Mulliken charges:
               1
     1  O   -0.804466
     2  H    0.402233
     3  H    0.402233
 Sum of Mulliken charges =   0.00000

 Dipole moment (field-independent basis, Debye):
    X=             -0.0000    Y=              0.0000    Z=             -1.8441  Tot=              1.8441
 Quadrupole moment (field-independent basis, Debye-Ang):
   XX=             -7.1817   YY=             -3.6539   ZZ=             -6.3447
   XY=              0.0000   XZ=              0.0000   YZ=              0.0000

 Normal termination of Gaussian 16 at Wed Feb  8 14:51:21 2023.
