 Gaussian 16, Revision C.01,
 Gaussian 16:  ES64L-G16RevC.01  3-Jul-2019

 ------------------------------
 #P HF/6-31g* scf(maxcycle=200)
 ------------------------------

 --------------
 Gaussian input
 --------------
 Symbolic Z-matrix:
 Charge =  0 Multiplicity = 1

                         Standard orientation:
 ---------------------------------------------------------------------
 Center     Atomic      Atomic             Coordinates (Angstroms)
 Number     Number       Type             X           Y           Z
 ---------------------------------------------------------------------
      1          8           0        0.000000    0.111904    0.000000
      2          1           0        0.747112   -0.405884    0.000000
      3          1           0       -0.747112   -0.489348    0.000000
 ---------------------------------------------------------------------

 SCF Done:  E(RHF) =  -76.0088287887     A.U. after   10 cycles

 The electronic state is 1-A'.
 Alpha  occ. eigenvalues --  -20.55464  -1.35316  -0.72379  -0.57111  -0.49892
 Alpha virt. eigenvalues --    0.21542   0.31042   1.03917   1.13495   1.16819
 Alpha virt. eigenvalues --    1.19304   1.39284   1.42990   2.02006   2.02625
 Alpha virt. eigenvalues --    2.06616   2.64935   2.99564   3.98712

 Mulliken charges:
               1
     1  O   -0.869610
     2  H    0.435724
     3  H    0.433886
 Sum of Mulliken charges =   0.00000

 Dipole moment (field-independent basis, Debye):
    X=              0.0380    Y=             -2.1695    Z=              0.0000  Tot=              2.1698
 Quadrupole moment (field-independent basis, Debye-Ang):
   XX=             -4.0961   YY=             -6.0116   ZZ=             -7.1770
   XY=              0.1353   XZ=              0.0000   YZ=              0.0000

 Normal termination of Gaussian 16 at Wed Feb  8 15:05:11 2023.
