 Gaussian 16, Revision C.01,
 Gaussian 16:  ES64L-G16RevC.01  3-Jul-2019

 ----------------------------------------
 #P CCSD(T)/aug-cc-pVDZ scf(maxcycle=200)
 ----------------------------------------

 --------------
 Gaussian input
 --------------
 Symbolic Z-matrix:
 Charge =  0 Multiplicity = 1

                         Standard orientation:
 ---------------------------------------------------------------------
 Center     Atomic      Atomic             Coordinates (Angstroms)
 Number     Number       Type             X           Y           Z
 ---------------------------------------------------------------------
      1          8           0        0.000000    0.142189    0.000000
      2          1           0        0.642020   -0.501311    0.000000
      3          1           0       -0.642020   -0.636201    0.000000
 ---------------------------------------------------------------------

 SCF Done:  E(RHF) =  -76.0234950206     A.U. after   10 cycles
 E2 =    -0.2217267818D+00 EUMP2 =    -0.76245221802433D+02
 CCSD(T)
 CCSD(T)= -0.76258004531D+02

 The electronic state is 1-A'.
 Alpha  occ. eigenvalues --  -20.58475  -1.37471  -0.67686  -0.62350  -0.51494
 Alpha virt. eigenvalues --    0.03316   0.05971   0.17046   0.19899   0.22131
 Alpha virt. eigenvalues --    0.23712   0.28244   0.36155   0.37331   0.39383
 Alpha virt. eigenvalues --    0.41081   0.55792   0.63214   0.66142   0.77607

 Mulliken charges:
               1
     1  O   -0.291996
     2  H    0.098212
     3  H    0.193785
 Sum of Mulliken charges =   0.00000

 Dipole moment (field-independent basis, Debye):
    X=              0.0660    Y=             -2.2977    Z=              0.0000  Tot=              2.2987
 Quadrupole moment (field-independent basis, Debye-Ang):
   XX=             -5.1711   YY=             -5.6354   ZZ=             -7.5584
   XY=              0.1635   XZ=              0.0000   YZ=              0.0000

 2527938\CCSD=-76.2525679\CCSD(T)=-76.2580045\RMSD=6.747e-09\PG=CS [SG(
 Normal termination of Gaussian 16 at Wed Feb  8 14:47:42 2023.
