 Gaussian 16, Revision C.01,
 Gaussian 16:  ES64L-G16RevC.01  3-Jul-2019

 ---------------------------------
 #P B3LYP/6-31g* scf(maxcycle=200)
 ---------------------------------

 --------------
 Gaussian input
 --------------
 Symbolic Z-matrix:
 Charge =  0 Multiplicity = 1

                         Standard orientation:
 ---------------------------------------------------------------------
 Center     Atomic      Atomic             Coordinates (Angstroms)
 Number     Number       Type             X           Y           Z
 ---------------------------------------------------------------------
      1          8           0        0.000000   -0.000000    0.121116
      2          1           0        0.000000    0.677902   -0.484466
      3          1           0       -0.000000   -0.677902   -0.484466
 ---------------------------------------------------------------------

 SCF Done:  E(RB3LYP) =  -76.3990332841     A.U. after    9 cycles

 The electronic state is 1-A1.
 Alpha  occ. eigenvalues --  -19.13097  -1.03352  -0.52615  -0.39137  -0.29819
 Alpha virt. eigenvalues --    0.07545   0.16799   0.77343   0.88139   0.88881
 Alpha virt. eigenvalues --    0.97221   1.08036   1.22813   1.69366   1.73942
 Alpha virt. eigenvalues --    1.76086   2.36769   2.65546   3.56771

 Mulliken charges:
               1
     1  O   -0.770420
     2  H    0.385210
     3  H    0.385210
 Sum of Mulliken charges =  -0.00000

 Dipole moment (field-independent basis, Debye):
    X=             -0.0000    Y=             -0.0000    Z=             -2.1772  Tot=              2.1772
 Quadrupole moment (field-independent basis, Debye-Ang):
   XX=             -7.0872   YY=             -4.6629   ZZ=             -5.7877
   XY=              0.0000   XZ=              0.0000   YZ=              0.0000

 Normal termination of Gaussian 16 at Wed Feb  8 14:49:28 2023.
