 Gaussian 16, Revision C.01,
 Gaussian 16:  ES64L-G16RevC.01  3-Jul-2019

 ---------------------------------
 #P B3LYP/6-31g* scf(maxcycle=200)
 ---------------------------------

 --------------
 Gaussian input
 --------------
 Symbolic Z-matrix:
 Charge =  0 Multiplicity = 1

                         Standard orientation:
 ---------------------------------------------------------------------
 Center     Atomic      Atomic             Coordinates (Angstroms)
 Number     Number       Type             X           Y           Z
 ---------------------------------------------------------------------
      1          8           0        0.000000    0.000000    0.106628
      2          1           0        0.000000    0.797147   -0.426512
      3          1           0       -0.000000   -0.797147   -0.426512
 ---------------------------------------------------------------------

 SCF Done:  E(RB3LYP) =  -76.4069591784     A.U. after    9 cycles

 The electronic state is 1-A1.
 Alpha  occ. eigenvalues --  -19.13161  -0.99443  -0.53498  -0.35494  -0.28879
 Alpha virt. eigenvalues --    0.06571   0.15376   0.81450   0.83573   0.89250
 Alpha virt. eigenvalues --    0.89295   1.07736   1.16806   1.73757   1.75382
 Alpha virt. eigenvalues --    1.78882   2.30906   2.58914   3.57177

 Mulliken charges:
               1
     1  O   -0.792497
     2  H    0.396248
     3  H    0.396248
 Sum of Mulliken charges =   0.00000

 Dipole moment (field-independent basis, Debye):
    X=             -0.0000    Y=              0.0000    Z=             -1.9501  Tot=              1.9501
 Quadrupole moment (field-independent basis, Debye-Ang):
   XX=             -7.1824   YY=             -3.9127   ZZ=             -6.2030
   XY=              0.0000   XZ=              0.0000   YZ=             -0.0000

 Normal termination of Gaussian 16 at Wed Feb  8 14:51:13 2023.
