 Gaussian 16, Revision C.01,
 Gaussian 16:  ES64L-G16RevC.01  3-Jul-2019

 ----------------------------------------
 #P CCSD(T)/aug-cc-pVTZ scf(maxcycle=200)
 ----------------------------------------

 --------------
 Gaussian input
 --------------
 Symbolic Z-matrix:
 Charge =  0 Multiplicity = 1

                         Standard orientation:
 ---------------------------------------------------------------------
 Center     Atomic      Atomic             Coordinates (Angstroms)
 Number     Number       Type             X           Y           Z
 ---------------------------------------------------------------------
      1          8           0        0.000000    0.112420    0.000000
      2          1           0        0.773917   -0.364376    0.000000
      3          1           0       -0.773917   -0.534986    0.000000
 ---------------------------------------------------------------------

 SCF Done:  E(RHF) =  -76.0552986282     A.U. after   10 cycles
 E2 =    -0.2682049142D+00 EUMP2 =    -0.76323503542430D+02
 CCSD(T)
 CCSD(T)= -0.76336899679D+02

 The electronic state is 1-A'.
 Alpha  occ. eigenvalues --  -20.56518  -1.35235  -0.72498  -0.57622  -0.50924
 Alpha virt. eigenvalues --    0.02954   0.04747   0.13626   0.15776   0.17304
 Alpha virt. eigenvalues --    0.18249   0.22825   0.24466   0.26388   0.30494
 Alpha virt. eigenvalues --    0.31304   0.36525   0.43255   0.47053   0.60208

 Mulliken charges:
               1
     1  O   -0.430669
     2  H    0.170530
     3  H    0.260139
 Sum of Mulliken charges =  -0.00000

 Dipole moment (field-independent basis, Debye):
    X=              0.0389    Y=             -1.9209    Z=              0.0000  Tot=              1.9213
 Quadrupole moment (field-independent basis, Debye-Ang):
   XX=             -4.0920   YY=             -6.3287   ZZ=             -7.5667
   XY=              0.3028   XZ=              0.0000   YZ=              0.0000

 328747\CCSD=-76.328275\CCSD(T)=-76.3368997\RMSD=4.097e-09\PG=CS [SG(H2
 Normal termination of Gaussian 16 at Wed Feb  8 13:50:39 2023.
