 Gaussian 16, Revision C.01,
 Gaussian 16:  ES64L-G16RevC.01  3-Jul-2019

 -----------------------------------
 #P HF/aug-cc-pVDZ scf(maxcycle=200)
 -----------------------------------

 --------------
 Gaussian input
 --------------
 Symbolic Z-matrix:
 Charge =  0 Multiplicity = 1

                         Standard orientation:
 ---------------------------------------------------------------------
 Center     Atomic      Atomic             Coordinates (Angstroms)
 Number     Number       Type             X           Y           Z
 ---------------------------------------------------------------------
      1          8           0        0.000000    0.109279   -0.000000
      2          1           0        0.756707   -0.479852   -0.000000
      3          1           0       -0.756707   -0.394383    0.000000
 ---------------------------------------------------------------------

 SCF Done:  E(RHF) =  -76.0399955547     A.U. after   10 cycles

 The electronic state is 1-A'.
 Alpha  occ. eigenvalues --  -20.57137  -1.36675  -0.74030  -0.58208  -0.51041
 Alpha virt. eigenvalues --    0.03610   0.05770   0.17376   0.19497   0.22335
 Alpha virt. eigenvalues --    0.22952   0.29884   0.32969   0.38518   0.41551
 Alpha virt. eigenvalues --    0.44364   0.53880   0.65137   0.66113   0.83440

 Mulliken charges:
               1
     1  O   -0.253074
     2  H    0.155594
     3  H    0.097480
 Sum of Mulliken charges =  -0.00000

 Dipole moment (field-independent basis, Debye):
    X=             -0.0212    Y=             -1.9161    Z=             -0.0000  Tot=              1.9162
 Quadrupole moment (field-independent basis, Debye-Ang):
   XX=             -4.1747   YY=             -6.3563   ZZ=             -7.5398
   XY=             -0.1516   XZ=             -0.0000   YZ=              0.0000

 Normal termination of Gaussian 16 at Mon Feb 20 10:27:46 2023.
