 Gaussian 16, Revision C.01,
 Gaussian 16:  ES64L-G16RevC.01  3-Jul-2019

 ----------------------------------------
 #P CCSD(T)/aug-cc-pVTZ scf(maxcycle=200)
 ----------------------------------------

 --------------
 Gaussian input
 --------------
 Symbolic Z-matrix:
 Charge =  0 Multiplicity = 1

                         Standard orientation:
 ---------------------------------------------------------------------
 Center     Atomic      Atomic             Coordinates (Angstroms)
 Number     Number       Type             X           Y           Z
 ---------------------------------------------------------------------
      1          8           0        0.000000    0.000000    0.117489
      2          1           0        0.000000    0.758015   -0.469958
      3          1           0       -0.000000   -0.758015   -0.469958
 ---------------------------------------------------------------------

 SCF Done:  E(RHF) =  -76.0604861527     A.U. after   10 cycles
 E2 =    -0.2684943103D+00 EUMP2 =    -0.76328980463072D+02
 CCSD(T)
 CCSD(T)= -0.76342312631D+02

 The electronic state is 1-A1.
 Alpha  occ. eigenvalues --  -20.56753  -1.35274  -0.71676  -0.58473  -0.51024
 Alpha virt. eigenvalues --    0.02942   0.04768   0.13595   0.15861   0.17517
 Alpha virt. eigenvalues --    0.18299   0.22745   0.24498   0.26528   0.30047
 Alpha virt. eigenvalues --    0.31043   0.36581   0.43782   0.46648   0.59954

 Mulliken charges:
               1
     1  O   -0.441036
     2  H    0.220518
     3  H    0.220518
 Sum of Mulliken charges =   0.00000

 Dipole moment (field-independent basis, Debye):
    X=             -0.0000    Y=              0.0000    Z=             -1.9850  Tot=              1.9850
 Quadrupole moment (field-independent basis, Debye-Ang):
   XX=             -7.5620   YY=             -4.2440   ZZ=             -6.2435
   XY=              0.0000   XZ=              0.0000   YZ=             -0.0000

 33415\CCSD=-76.33367\CCSD(T)=-76.3423126\RMSD=3.896e-09\PG=C02V [C2(O1
 Normal termination of Gaussian 16 at Wed Feb  8 13:53:51 2023.
