 Gaussian 16, Revision C.01,
 Gaussian 16:  ES64L-G16RevC.01  3-Jul-2019

 ---------------------------------
 #P B3LYP/6-31g* scf(maxcycle=200)
 ---------------------------------

 --------------
 Gaussian input
 --------------
 Symbolic Z-matrix:
 Charge =  0 Multiplicity = 1

                         Standard orientation:
 ---------------------------------------------------------------------
 Center     Atomic      Atomic             Coordinates (Angstroms)
 Number     Number       Type             X           Y           Z
 ---------------------------------------------------------------------
      1          8           0        0.000000    0.000000    0.117489
      2          1           0        0.000000    0.758015   -0.469958
      3          1           0       -0.000000   -0.758015   -0.469958
 ---------------------------------------------------------------------

 SCF Done:  E(RB3LYP) =  -76.4087771357     A.U. after    9 cycles

 The electronic state is 1-A1.
 Alpha  occ. eigenvalues --  -19.13607  -1.00140  -0.52217  -0.37123  -0.29163
 Alpha virt. eigenvalues --    0.06539   0.15178   0.77987   0.86824   0.89091
 Alpha virt. eigenvalues --    0.89558   1.06886   1.19214   1.72929   1.74359
 Alpha virt. eigenvalues --    1.77925   2.29249   2.59515   3.55832

 Mulliken charges:
               1
     1  O   -0.777837
     2  H    0.388919
     3  H    0.388919
 Sum of Mulliken charges =  -0.00000

 Dipole moment (field-independent basis, Debye):
    X=             -0.0000    Y=              0.0000    Z=             -2.0799  Tot=              2.0799
 Quadrupole moment (field-independent basis, Debye-Ang):
   XX=             -7.1844   YY=             -4.2642   ZZ=             -6.0059
   XY=              0.0000   XZ=              0.0000   YZ=             -0.0000

 Normal termination of Gaussian 16 at Wed Feb  8 14:51:10 2023.
