 Gaussian 16, Revision C.01,
 Gaussian 16:  ES64L-G16RevC.01  3-Jul-2019

 ----------------------------------------
 #P CCSD(T)/aug-cc-pVTZ scf(maxcycle=200)
 ----------------------------------------

 --------------
 Gaussian input
 --------------
 Symbolic Z-matrix:
 Charge =  0 Multiplicity = 1

                         Standard orientation:
 ---------------------------------------------------------------------
 Center     Atomic      Atomic             Coordinates (Angstroms)
 Number     Number       Type             X           Y           Z
 ---------------------------------------------------------------------
      1          8           0        0.000000    0.124503    0.000000
      2          1           0        0.695735   -0.460504    0.000000
      3          1           0       -0.695735   -0.535522    0.000000
 ---------------------------------------------------------------------

 SCF Done:  E(RHF) =  -76.0567829655     A.U. after   10 cycles
 E2 =    -0.2672430143D+00 EUMP2 =    -0.76324025979825D+02
 CCSD(T)
 CCSD(T)= -0.76337302478D+02

 The electronic state is 1-A'.
 Alpha  occ. eigenvalues --  -20.56602  -1.37312  -0.71375  -0.60532  -0.51462
 Alpha virt. eigenvalues --    0.02913   0.04828   0.13466   0.15866   0.17701
 Alpha virt. eigenvalues --    0.18493   0.22727   0.24738   0.26841   0.29392
 Alpha virt. eigenvalues --    0.30670   0.36889   0.44024   0.47219   0.59622

 Mulliken charges:
               1
     1  O   -0.401442
     2  H    0.175076
     3  H    0.226366
 Sum of Mulliken charges =  -0.00000

 Dipole moment (field-independent basis, Debye):
    X=              0.0269    Y=             -2.0890    Z=              0.0000  Tot=              2.0892
 Quadrupole moment (field-independent basis, Debye-Ang):
   XX=             -4.6420   YY=             -5.9826   ZZ=             -7.4923
   XY=              0.1091   XZ=              0.0000   YZ=              0.0000

 93028\CCSD=-76.3288429\CCSD(T)=-76.3373025\RMSD=2.881e-09\PG=CS [SG(H2
 Normal termination of Gaussian 16 at Wed Feb  8 13:49:11 2023.
