 Gaussian 16, Revision C.01,
 Gaussian 16:  ES64L-G16RevC.01  3-Jul-2019

 ------------------------------------
 #P wB97XD/6-311g** scf(maxcycle=200)
 ------------------------------------

 --------------
 Gaussian input
 --------------
 Symbolic Z-matrix:
 Charge =  0 Multiplicity = 1

                         Standard orientation:
 ---------------------------------------------------------------------
 Center     Atomic      Atomic             Coordinates (Angstroms)
 Number     Number       Type             X           Y           Z
 ---------------------------------------------------------------------
      1          8           0        0.000000    0.133701    0.000000
      2          1           0        0.721544   -0.571604   -0.000000
      3          1           0       -0.721544   -0.498007    0.000000
 ---------------------------------------------------------------------

 SCF Done:  E(RwB97XD) =  -76.4191375008     A.U. after   12 cycles

 The electronic state is 1-A'.
 Alpha  occ. eigenvalues --  -19.23504  -1.10076  -0.58251  -0.48103  -0.38744
 Alpha virt. eigenvalues --    0.11038   0.18667   0.43739   0.51733   0.85358
 Alpha virt. eigenvalues --    0.85814   0.95371   1.16962   1.20180   1.38064
 Alpha virt. eigenvalues --    1.48793   1.79369   1.94453   2.14499   2.37326

 Mulliken charges:
               1
     1  O   -0.454305
     2  H    0.226564
     3  H    0.227741
 Sum of Mulliken charges =  -0.00000

 Dipole moment (field-independent basis, Debye):
    X=             -0.0466    Y=             -2.2323    Z=             -0.0000  Tot=              2.2328
 Quadrupole moment (field-independent basis, Debye-Ang):
   XX=             -4.6325   YY=             -5.7588   ZZ=             -7.2158
   XY=             -0.0951   XZ=              0.0000   YZ=              0.0000

 Normal termination of Gaussian 16 at Wed Feb  8 14:42:30 2023.
