 Gaussian 16, Revision C.01,
 Gaussian 16:  ES64L-G16RevC.01  3-Jul-2019

 ---------------------------------
 #P B3LYP/6-31g* scf(maxcycle=200)
 ---------------------------------

 --------------
 Gaussian input
 --------------
 Symbolic Z-matrix:
 Charge =  0 Multiplicity = 1

                         Standard orientation:
 ---------------------------------------------------------------------
 Center     Atomic      Atomic             Coordinates (Angstroms)
 Number     Number       Type             X           Y           Z
 ---------------------------------------------------------------------
      1          8           0        0.000000    0.125491    0.000000
      2          1           0        0.722938   -0.425546    0.000000
      3          1           0       -0.722938   -0.578385    0.000000
 ---------------------------------------------------------------------

 SCF Done:  E(RB3LYP) =  -76.4028893567     A.U. after    9 cycles

 The electronic state is 1-A'.
 Alpha  occ. eigenvalues --  -19.13875  -1.00926  -0.51139  -0.38360  -0.29387
 Alpha virt. eigenvalues --    0.06049   0.15237   0.74953   0.88186   0.88953
 Alpha virt. eigenvalues --    0.91380   1.06999   1.21595   1.71167   1.74709
 Alpha virt. eigenvalues --    1.77274   2.27865   2.60123   3.54868

 Mulliken charges:
               1
     1  O   -0.765044
     2  H    0.391365
     3  H    0.373679
 Sum of Mulliken charges =  -0.00000

 Dipole moment (field-independent basis, Debye):
    X=              0.1008    Y=             -2.1663    Z=              0.0000  Tot=              2.1687
 Quadrupole moment (field-independent basis, Debye-Ang):
   XX=             -4.5457   YY=             -5.8306   ZZ=             -7.1845
   XY=              0.1961   XZ=              0.0000   YZ=              0.0000

 Normal termination of Gaussian 16 at Wed Feb  8 14:50:19 2023.
