 Gaussian 16, Revision C.01,
 Gaussian 16:  ES64L-G16RevC.01  3-Jul-2019

 ------------------------------
 #P HF/6-31g* scf(maxcycle=200)
 ------------------------------

 --------------
 Gaussian input
 --------------
 Symbolic Z-matrix:
 Charge =  0 Multiplicity = 1

                         Standard orientation:
 ---------------------------------------------------------------------
 Center     Atomic      Atomic             Coordinates (Angstroms)
 Number     Number       Type             X           Y           Z
 ---------------------------------------------------------------------
      1          8           0        0.000000   -0.000000    0.142030
      2          1           0        0.000000    0.644490   -0.568120
      3          1           0       -0.000000   -0.644490   -0.568120
 ---------------------------------------------------------------------

 SCF Done:  E(RHF) =  -75.9967442556     A.U. after   10 cycles

 The electronic state is 1-A1.
 Alpha  occ. eigenvalues --  -20.57036  -1.36034  -0.66333  -0.61309  -0.50517
 Alpha virt. eigenvalues --    0.20273   0.30169   0.96134   1.12365   1.16274
 Alpha virt. eigenvalues --    1.21379   1.36553   1.50118   1.98890   2.04427
 Alpha virt. eigenvalues --    2.05084   2.70623   2.84322   3.92556

 Mulliken charges:
               1
     1  O   -0.833186
     2  H    0.416593
     3  H    0.416593
 Sum of Mulliken charges =  -0.00000

 Dipole moment (field-independent basis, Debye):
    X=             -0.0000    Y=             -0.0000    Z=             -2.5477  Tot=              2.5477
 Quadrupole moment (field-independent basis, Debye-Ang):
   XX=             -7.2365   YY=             -5.0686   ZZ=             -5.4173
   XY=              0.0000   XZ=              0.0000   YZ=              0.0000

 Normal termination of Gaussian 16 at Wed Feb  8 15:06:03 2023.
