 Gaussian 16, Revision C.01,
 Gaussian 16:  ES64L-G16RevC.01  3-Jul-2019

 ------------------------------------
 #P wB97XD/6-311g** scf(maxcycle=200)
 ------------------------------------

 --------------
 Gaussian input
 --------------
 Symbolic Z-matrix:
 Charge =  0 Multiplicity = 1

                         Standard orientation:
 ---------------------------------------------------------------------
 Center     Atomic      Atomic             Coordinates (Angstroms)
 Number     Number       Type             X           Y           Z
 ---------------------------------------------------------------------
      1          8           0       -0.000000    0.000000    0.123464
      2          1           0        0.000000    0.667230   -0.493857
      3          1           0       -0.000000   -0.667230   -0.493857
 ---------------------------------------------------------------------

 SCF Done:  E(RwB97XD) =  -76.4146531772     A.U. after   11 cycles

 The electronic state is 1-A1.
 Alpha  occ. eigenvalues --  -19.22185  -1.13573  -0.60958  -0.48753  -0.39335
 Alpha virt. eigenvalues --    0.12542   0.20283   0.47584   0.56177   0.85082
 Alpha virt. eigenvalues --    0.85272   0.96484   1.15889   1.19503   1.40060
 Alpha virt. eigenvalues --    1.49551   1.86052   2.03979   2.22514   2.41819

 Mulliken charges:
               1
     1  O   -0.447810
     2  H    0.223905
     3  H    0.223905
 Sum of Mulliken charges =   0.00000

 Dipole moment (field-independent basis, Debye):
    X=             -0.0000    Y=             -0.0000    Z=             -2.1864  Tot=              2.1864
 Quadrupole moment (field-independent basis, Debye-Ang):
   XX=             -7.0518   YY=             -4.7068   ZZ=             -5.7554
   XY=              0.0000   XZ=              0.0000   YZ=              0.0000

 Normal termination of Gaussian 16 at Wed Feb  8 14:40:03 2023.
