 Gaussian 16, Revision C.01,
 Gaussian 16:  ES64L-G16RevC.01  3-Jul-2019

 ----------------------------------------
 #P PBE1PBE/aug-cc-pVDZ scf(maxcycle=200)
 ----------------------------------------

 --------------
 Gaussian input
 --------------
 Symbolic Z-matrix:
 Charge =  0 Multiplicity = 1

                         Standard orientation:
 ---------------------------------------------------------------------
 Center     Atomic      Atomic             Coordinates (Angstroms)
 Number     Number       Type             X           Y           Z
 ---------------------------------------------------------------------
      1          8           0        0.000000    0.127996    0.000000
      2          1           0        0.712035   -0.586908    0.000000
      3          1           0       -0.712035   -0.437060   -0.000000
 ---------------------------------------------------------------------

 SCF Done:  E(RPBE1PBE) =  -76.3531463136     A.U. after    8 cycles

 The electronic state is 1-A'.
 Alpha  occ. eigenvalues --  -19.23298  -1.05630  -0.53632  -0.42641  -0.33488
 Alpha virt. eigenvalues --   -0.01379   0.03342   0.10973   0.13234   0.14280
 Alpha virt. eigenvalues --    0.16870   0.18774   0.25108   0.29155   0.29482
 Alpha virt. eigenvalues --    0.32457   0.46153   0.50474   0.54939   0.62628

 Mulliken charges:
               1
     1  O   -0.211030
     2  H    0.153487
     3  H    0.057543
 Sum of Mulliken charges =  -0.00000

 Dipole moment (field-independent basis, Debye):
    X=             -0.0557    Y=             -1.9815    Z=             -0.0000  Tot=              1.9823
 Quadrupole moment (field-independent basis, Debye-Ang):
   XX=             -4.8207   YY=             -6.1683   ZZ=             -7.7286
   XY=             -0.2196   XZ=              0.0000   YZ=             -0.0000

 Normal termination of Gaussian 16 at Wed Mar 29 21:53:02 2023.
