 Gaussian 16, Revision C.01,
 Gaussian 16:  ES64L-G16RevC.01  3-Jul-2019

 ----------------------------------------
 #P CCSD(T)/aug-cc-pVTZ scf(maxcycle=200)
 ----------------------------------------

 --------------
 Gaussian input
 --------------
 Symbolic Z-matrix:
 Charge =  0 Multiplicity = 1

                         Standard orientation:
 ---------------------------------------------------------------------
 Center     Atomic      Atomic             Coordinates (Angstroms)
 Number     Number       Type             X           Y           Z
 ---------------------------------------------------------------------
      1          8           0        0.000000    0.135276    0.000000
      2          1           0        0.677987   -0.470211    0.000000
      3          1           0       -0.677987   -0.611996    0.000000
 ---------------------------------------------------------------------

 SCF Done:  E(RHF) =  -76.0490579568     A.U. after   10 cycles
 E2 =    -0.2700155604D+00 EUMP2 =    -0.76319073517220D+02
 CCSD(T)
 CCSD(T)= -0.76332325929D+02

 The electronic state is 1-A'.
 Alpha  occ. eigenvalues --  -20.57254  -1.36613  -0.68890  -0.61102  -0.51436
 Alpha virt. eigenvalues --    0.02824   0.04861   0.13313   0.16059   0.17634
 Alpha virt. eigenvalues --    0.18688   0.22279   0.24696   0.27043   0.28735
 Alpha virt. eigenvalues --    0.30337   0.36925   0.42959   0.46958   0.59133

 Mulliken charges:
               1
     1  O   -0.437218
     2  H    0.176156
     3  H    0.261062
 Sum of Mulliken charges =   0.00000

 Dipole moment (field-independent basis, Debye):
    X=              0.0594    Y=             -2.2011    Z=              0.0000  Tot=              2.2019
 Quadrupole moment (field-independent basis, Debye-Ang):
   XX=             -4.8780   YY=             -5.7883   ZZ=             -7.5416
   XY=              0.1881   XZ=              0.0000   YZ=              0.0000

 240299\CCSD=-76.3235359\CCSD(T)=-76.3323259\RMSD=3.827e-09\PG=CS [SG(H
 Normal termination of Gaussian 16 at Wed Feb  8 13:50:41 2023.
