 Gaussian 16, Revision C.01,
 Gaussian 16:  ES64L-G16RevC.01  3-Jul-2019

 ----------------------------------------
 #P CCSD(T)/aug-cc-pVTZ scf(maxcycle=200)
 ----------------------------------------

 --------------
 Gaussian input
 --------------
 Symbolic Z-matrix:
 Charge =  0 Multiplicity = 1

                         Standard orientation:
 ---------------------------------------------------------------------
 Center     Atomic      Atomic             Coordinates (Angstroms)
 Number     Number       Type             X           Y           Z
 ---------------------------------------------------------------------
      1          8           0       -0.000000    0.000000    0.125263
      2          1           0       -0.000000    0.726232   -0.501051
      3          1           0       -0.000000   -0.726232   -0.501051
 ---------------------------------------------------------------------

 SCF Done:  E(RHF) =  -76.0591073776     A.U. after   10 cycles
 E2 =    -0.2690462041D+00 EUMP2 =    -0.76328153581762D+02
 CCSD(T)
 CCSD(T)= -0.76341445593D+02

 The electronic state is 1-A1.
 Alpha  occ. eigenvalues --  -20.57005  -1.35721  -0.70464  -0.59660  -0.51196
 Alpha virt. eigenvalues --    0.02901   0.04806   0.13499   0.15958   0.17631
 Alpha virt. eigenvalues --    0.18449   0.22552   0.24581   0.26754   0.29442
 Alpha virt. eigenvalues --    0.30699   0.36704   0.43719   0.46619   0.59581

 Mulliken charges:
               1
     1  O   -0.442623
     2  H    0.221311
     3  H    0.221311
 Sum of Mulliken charges =  -0.00000

 Dipole moment (field-independent basis, Debye):
    X=             -0.0000    Y=             -0.0000    Z=             -2.0810  Tot=              2.0810
 Quadrupole moment (field-independent basis, Debye-Ang):
   XX=             -7.5530   YY=             -4.5102   ZZ=             -6.0586
   XY=              0.0000   XZ=              0.0000   YZ=             -0.0000

 .3332405\CCSD=-76.3327541\CCSD(T)=-76.3414456\RMSD=3.895e-09\PG=C02V [
 Normal termination of Gaussian 16 at Wed Feb  8 13:52:39 2023.
