 Gaussian 16, Revision C.01,
 Gaussian 16:  ES64L-G16RevC.01  3-Jul-2019

 ------------------------------------
 #P wB97XD/6-311g** scf(maxcycle=200)
 ------------------------------------

 --------------
 Gaussian input
 --------------
 Symbolic Z-matrix:
 Charge =  0 Multiplicity = 1

                         Standard orientation:
 ---------------------------------------------------------------------
 Center     Atomic      Atomic             Coordinates (Angstroms)
 Number     Number       Type             X           Y           Z
 ---------------------------------------------------------------------
      1          8           0        0.000000    0.100788    0.000000
      2          1           0        0.844123   -0.354336    0.000000
      3          1           0       -0.844123   -0.451967    0.000000
 ---------------------------------------------------------------------

 SCF Done:  E(RwB97XD) =  -76.4157534973     A.U. after   12 cycles

 The electronic state is 1-A'.
 Alpha  occ. eigenvalues --  -19.22160  -1.08216  -0.62133  -0.43340  -0.37983
 Alpha virt. eigenvalues --    0.11423   0.18804   0.44789   0.48827   0.85154
 Alpha virt. eigenvalues --    0.85787   0.94129   1.15356   1.31271   1.52199
 Alpha virt. eigenvalues --    1.60458   1.63539   2.04368   2.08799   2.47092

 Mulliken charges:
               1
     1  O   -0.540993
     2  H    0.269711
     3  H    0.271282
 Sum of Mulliken charges =  -0.00000

 Dipole moment (field-independent basis, Debye):
    X=              0.0357    Y=             -1.8851    Z=              0.0000  Tot=              1.8854
 Quadrupole moment (field-independent basis, Debye-Ang):
   XX=             -3.5479   YY=             -6.3966   ZZ=             -7.2410
   XY=              0.1859   XZ=              0.0000   YZ=              0.0000

 Normal termination of Gaussian 16 at Wed Feb  8 14:42:04 2023.
