 Gaussian 16, Revision C.01,
 Gaussian 16:  ES64L-G16RevC.01  3-Jul-2019

 ------------------------------------
 #P wB97XD/6-311g** scf(maxcycle=200)
 ------------------------------------

 --------------
 Gaussian input
 --------------
 Symbolic Z-matrix:
 Charge =  0 Multiplicity = 1

                         Standard orientation:
 ---------------------------------------------------------------------
 Center     Atomic      Atomic             Coordinates (Angstroms)
 Number     Number       Type             X           Y           Z
 ---------------------------------------------------------------------
      1          8           0       -0.000000   -0.000000    0.106265
      2          1           0       -0.000000    0.857774   -0.425059
      3          1           0       -0.000000   -0.857774   -0.425059
 ---------------------------------------------------------------------

 SCF Done:  E(RwB97XD) =  -76.4141422501     A.U. after   12 cycles

 The electronic state is 1-A1.
 Alpha  occ. eigenvalues --  -19.22666  -1.07353  -0.60871  -0.43515  -0.37848
 Alpha virt. eigenvalues --    0.10853   0.18230   0.44583   0.46645   0.85220
 Alpha virt. eigenvalues --    0.85781   0.93885   1.15639   1.31393   1.50445
 Alpha virt. eigenvalues --    1.58887   1.62778   2.01765   2.05141   2.45991

 Mulliken charges:
               1
     1  O   -0.537557
     2  H    0.268779
     3  H    0.268779
 Sum of Mulliken charges =   0.00000

 Dipole moment (field-independent basis, Debye):
    X=             -0.0000    Y=             -0.0000    Z=             -1.9299  Tot=              1.9299
 Quadrupole moment (field-independent basis, Debye-Ang):
   XX=             -7.2940   YY=             -3.5570   ZZ=             -6.3765
   XY=              0.0000   XZ=              0.0000   YZ=             -0.0000

 Normal termination of Gaussian 16 at Wed Feb  8 14:43:15 2023.
