 Gaussian 16, Revision C.01,
 Gaussian 16:  ES64L-G16RevC.01  3-Jul-2019

 ----------------------------------------
 #P CCSD(T)/aug-cc-pVTZ scf(maxcycle=200)
 ----------------------------------------

 --------------
 Gaussian input
 --------------
 Symbolic Z-matrix:
 Charge =  0 Multiplicity = 1

                         Standard orientation:
 ---------------------------------------------------------------------
 Center     Atomic      Atomic             Coordinates (Angstroms)
 Number     Number       Type             X           Y           Z
 ---------------------------------------------------------------------
      1          8           0        0.000000    0.137622    0.000000
      2          1           0        0.666206   -0.620171    0.000000
      3          1           0       -0.666206   -0.480804   -0.000000
 ---------------------------------------------------------------------

 SCF Done:  E(RHF) =  -76.0471722629     A.U. after   10 cycles
 E2 =    -0.2703139092D+00 EUMP2 =    -0.76317486172086D+02
 CCSD(T)
 CCSD(T)= -0.76330701271D+02

 The electronic state is 1-A'.
 Alpha  occ. eigenvalues --  -20.57323  -1.36788  -0.68455  -0.61488  -0.51489
 Alpha virt. eigenvalues --    0.02806   0.04874   0.13269   0.16087   0.17651
 Alpha virt. eigenvalues --    0.18739   0.22221   0.24724   0.27108   0.28564
 Alpha virt. eigenvalues --    0.30264   0.36988   0.42862   0.46936   0.59029

 Mulliken charges:
               1
     1  O   -0.439246
     2  H    0.261736
     3  H    0.177509
 Sum of Mulliken charges =  -0.00000

 Dipole moment (field-independent basis, Debye):
    X=             -0.0611    Y=             -2.2296    Z=             -0.0000  Tot=              2.2304
 Quadrupole moment (field-independent basis, Debye-Ang):
   XX=             -4.9662   YY=             -5.7274   ZZ=             -7.5397
   XY=             -0.1780   XZ=             -0.0000   YZ=             -0.0000

 3223805\CCSD=-76.3218818\CCSD(T)=-76.3307013\RMSD=3.747e-09\PG=CS [SG(
 Normal termination of Gaussian 16 at Wed Feb  8 13:56:18 2023.
