 Gaussian 16, Revision C.01,
 Gaussian 16:  ES64L-G16RevC.01  3-Jul-2019

 ------------------------------
 #P HF/6-31g* scf(maxcycle=200)
 ------------------------------

 --------------
 Gaussian input
 --------------
 Symbolic Z-matrix:
 Charge =  0 Multiplicity = 1

                         Standard orientation:
 ---------------------------------------------------------------------
 Center     Atomic      Atomic             Coordinates (Angstroms)
 Number     Number       Type             X           Y           Z
 ---------------------------------------------------------------------
      1          8           0        0.000000    0.139927    0.000000
      2          1           0        0.654215   -0.628242    0.000000
      3          1           0       -0.654215   -0.491170   -0.000000
 ---------------------------------------------------------------------

 SCF Done:  E(RHF) =  -75.9943414465     A.U. after   10 cycles

 The electronic state is 1-A'.
 Alpha  occ. eigenvalues --  -20.56927  -1.36069  -0.67034  -0.60661  -0.50485
 Alpha virt. eigenvalues --    0.20139   0.30282   0.95861   1.12429   1.16312
 Alpha virt. eigenvalues --    1.22102   1.37476   1.49934   1.98765   2.04200
 Alpha virt. eigenvalues --    2.05321   2.65592   2.89418   3.93215

 Mulliken charges:
               1
     1  O   -0.832854
     2  H    0.407523
     3  H    0.425331
 Sum of Mulliken charges =  -0.00000

 Dipole moment (field-independent basis, Debye):
    X=             -0.1020    Y=             -2.5128    Z=             -0.0000  Tot=              2.5149
 Quadrupole moment (field-independent basis, Debye-Ang):
   XX=             -4.9836   YY=             -5.4577   ZZ=             -7.2338
   XY=             -0.1473   XZ=             -0.0000   YZ=             -0.0000

 Normal termination of Gaussian 16 at Wed Feb  8 15:06:44 2023.
