 Gaussian 16, Revision C.01,
 Gaussian 16:  ES64L-G16RevC.01  3-Jul-2019

 ----------------------------------------
 #P CCSD(T)/aug-cc-pVTZ scf(maxcycle=200)
 ----------------------------------------

 --------------
 Gaussian input
 --------------
 Symbolic Z-matrix:
 Charge =  0 Multiplicity = 1

                         Standard orientation:
 ---------------------------------------------------------------------
 Center     Atomic      Atomic             Coordinates (Angstroms)
 Number     Number       Type             X           Y           Z
 ---------------------------------------------------------------------
      1          8           0        0.000000    0.109487   -0.000000
      2          1           0        0.816810   -0.482883    0.000000
      3          1           0       -0.816810   -0.393009   -0.000000
 ---------------------------------------------------------------------

 SCF Done:  E(RHF) =  -76.0550220370     A.U. after   10 cycles
 E2 =    -0.2700251913D+00 EUMP2 =    -0.76325047228320D+02
 CCSD(T)
 CCSD(T)= -0.76338421644D+02

 The electronic state is 1-A'.
 Alpha  occ. eigenvalues --  -20.56783  -1.33553  -0.71736  -0.56452  -0.50572
 Alpha virt. eigenvalues --    0.02950   0.04709   0.13679   0.15854   0.17166
 Alpha virt. eigenvalues --    0.18123   0.22779   0.24271   0.26208   0.30794
 Alpha virt. eigenvalues --    0.31530   0.36409   0.42974   0.46325   0.60340

 Mulliken charges:
               1
     1  O   -0.479020
     2  H    0.258445
     3  H    0.220575
 Sum of Mulliken charges =  -0.00000

 Dipole moment (field-independent basis, Debye):
    X=             -0.0163    Y=             -1.8665    Z=              0.0000  Tot=              1.8666
 Quadrupole moment (field-independent basis, Debye-Ang):
   XX=             -3.8255   YY=             -6.4979   ZZ=             -7.6344
   XY=             -0.1717   XZ=              0.0000   YZ=              0.0000

 3300629\CCSD=-76.3295602\CCSD(T)=-76.3384216\RMSD=4.551e-09\PG=CS [SG(
 Normal termination of Gaussian 16 at Wed Feb  8 13:56:49 2023.
