 Gaussian 16, Revision C.01,
 Gaussian 16:  ES64L-G16RevC.01  3-Jul-2019

 ---------------------------------
 #P B3LYP/6-31g* scf(maxcycle=200)
 ---------------------------------

 --------------
 Gaussian input
 --------------
 Symbolic Z-matrix:
 Charge =  0 Multiplicity = 1

                         Standard orientation:
 ---------------------------------------------------------------------
 Center     Atomic      Atomic             Coordinates (Angstroms)
 Number     Number       Type             X           Y           Z
 ---------------------------------------------------------------------
      1          8           0        0.000000    0.106619    0.000000
      2          1           0        0.826173   -0.472621   -0.000000
      3          1           0       -0.826173   -0.380330    0.000000
 ---------------------------------------------------------------------

 SCF Done:  E(RB3LYP) =  -76.4042191521     A.U. after    9 cycles

 The electronic state is 1-A'.
 Alpha  occ. eigenvalues --  -19.13436  -0.98303  -0.52773  -0.34919  -0.28617
 Alpha virt. eigenvalues --    0.05684   0.14651   0.78651   0.82655   0.89382
 Alpha virt. eigenvalues --    0.89422   1.07696   1.15711   1.74217   1.76424
 Alpha virt. eigenvalues --    1.79480   2.28139   2.54553   3.56154

 Mulliken charges:
               1
     1  O   -0.790631
     2  H    0.391778
     3  H    0.398852
 Sum of Mulliken charges =  -0.00000

 Dipole moment (field-independent basis, Debye):
    X=             -0.0436    Y=             -1.9236    Z=             -0.0000  Tot=              1.9241
 Quadrupole moment (field-independent basis, Debye-Ang):
   XX=             -3.7801   YY=             -6.2588   ZZ=             -7.2310
   XY=             -0.1583   XZ=             -0.0000   YZ=             -0.0000

 Normal termination of Gaussian 16 at Wed Feb  8 14:52:26 2023.
