 Gaussian 16, Revision C.01,
 Gaussian 16:  ES64L-G16RevC.01  3-Jul-2019

 ----------------------------------------
 #P PBE1PBE/aug-cc-pVDZ scf(maxcycle=200)
 ----------------------------------------

 --------------
 Gaussian input
 --------------
 Symbolic Z-matrix:
 Charge =  0 Multiplicity = 1

                         Standard orientation:
 ---------------------------------------------------------------------
 Center     Atomic      Atomic             Coordinates (Angstroms)
 Number     Number       Type             X           Y           Z
 ---------------------------------------------------------------------
      1          8           0       -0.000000    0.000000    0.120117
      2          1           0       -0.000000    0.747647   -0.480470
      3          1           0       -0.000000   -0.747647   -0.480470
 ---------------------------------------------------------------------

 SCF Done:  E(RPBE1PBE) =  -76.3597840085     A.U. after    8 cycles

 The electronic state is 1-A1.
 Alpha  occ. eigenvalues --  -19.23139  -1.04964  -0.54805  -0.41510  -0.33355
 Alpha virt. eigenvalues --   -0.01219   0.03287   0.11222   0.13197   0.14496
 Alpha virt. eigenvalues --    0.16564   0.19005   0.24099   0.29269   0.30122
 Alpha virt. eigenvalues --    0.33100   0.45532   0.51770   0.54061   0.63457

 Mulliken charges:
               1
     1  O   -0.219699
     2  H    0.109849
     3  H    0.109849
 Sum of Mulliken charges =  -0.00000

 Dipole moment (field-independent basis, Debye):
    X=             -0.0000    Y=             -0.0000    Z=             -1.8966  Tot=              1.8966
 Quadrupole moment (field-independent basis, Debye-Ang):
   XX=             -7.7438   YY=             -4.5547   ZZ=             -6.3721
   XY=              0.0000   XZ=              0.0000   YZ=              0.0000

 Normal termination of Gaussian 16 at Mon Mar 20 17:59:10 2023.
