 Gaussian 16, Revision C.01,
 Gaussian 16:  ES64L-G16RevC.01  3-Jul-2019

 ----------------------------------------
 #P CCSD(T)/aug-cc-pVTZ scf(maxcycle=200)
 ----------------------------------------

 --------------
 Gaussian input
 --------------
 Symbolic Z-matrix:
 Charge =  0 Multiplicity = 1

                         Standard orientation:
 ---------------------------------------------------------------------
 Center     Atomic      Atomic             Coordinates (Angstroms)
 Number     Number       Type             X           Y           Z
 ---------------------------------------------------------------------
      1          8           0        0.000000    0.106621    0.000000
      2          1           0        0.766067   -0.382686    0.000000
      3          1           0       -0.766067   -0.470286    0.000000
 ---------------------------------------------------------------------

 SCF Done:  E(RHF) =  -76.0592270597     A.U. after   10 cycles
 E2 =    -0.2661784256D+00 EUMP2 =    -0.76325405485290D+02
 CCSD(T)
 CCSD(T)= -0.76338731646D+02

 The electronic state is 1-A'.
 Alpha  occ. eigenvalues --  -20.56027  -1.36227  -0.74257  -0.57757  -0.51073
 Alpha virt. eigenvalues --    0.03005   0.04743   0.13671   0.15619   0.17427
 Alpha virt. eigenvalues --    0.18160   0.23130   0.24532   0.26342   0.30819
 Alpha virt. eigenvalues --    0.31565   0.36561   0.44162   0.47143   0.60543

 Mulliken charges:
               1
     1  O   -0.394944
     2  H    0.171057
     3  H    0.223887
 Sum of Mulliken charges =  -0.00000

 Dipole moment (field-independent basis, Debye):
    X=              0.0186    Y=             -1.8648    Z=              0.0000  Tot=              1.8649
 Quadrupole moment (field-independent basis, Debye-Ang):
   XX=             -4.0569   YY=             -6.3928   ZZ=             -7.5130
   XY=              0.1574   XZ=              0.0000   YZ=              0.0000

 .3308127\CCSD=-76.330363\CCSD(T)=-76.3387316\RMSD=2.700e-09\PG=CS [SG(
 Normal termination of Gaussian 16 at Wed Feb  8 13:49:33 2023.
