 Gaussian 16, Revision C.01,
 Gaussian 16:  ES64L-G16RevC.01  3-Jul-2019

 ----------------------------------------
 #P CCSD(T)/aug-cc-pVTZ scf(maxcycle=200)
 ----------------------------------------

 --------------
 Gaussian input
 --------------
 Symbolic Z-matrix:
 Charge =  0 Multiplicity = 1

                         Standard orientation:
 ---------------------------------------------------------------------
 Center     Atomic      Atomic             Coordinates (Angstroms)
 Number     Number       Type             X           Y           Z
 ---------------------------------------------------------------------
      1          8           0        0.000000    0.119572    0.000000
      2          1           0        0.716953   -0.517343   -0.000000
      3          1           0       -0.716953   -0.439230    0.000000
 ---------------------------------------------------------------------

 SCF Done:  E(RHF) =  -76.0586042474     A.U. after   10 cycles
 E2 =    -0.2668341398D+00 EUMP2 =    -0.76325438387275D+02
 CCSD(T)
 CCSD(T)= -0.76338748986D+02

 The electronic state is 1-A'.
 Alpha  occ. eigenvalues --  -20.56449  -1.36982  -0.72252  -0.59728  -0.51354
 Alpha virt. eigenvalues --    0.02942   0.04803   0.13533   0.15799   0.17640
 Alpha virt. eigenvalues --    0.18394   0.22842   0.24683   0.26697   0.29781
 Alpha virt. eigenvalues --    0.30883   0.36779   0.44125   0.47211   0.59875

 Mulliken charges:
               1
     1  O   -0.398296
     2  H    0.225080
     3  H    0.173216
 Sum of Mulliken charges =  -0.00000

 Dipole moment (field-independent basis, Debye):
    X=             -0.0248    Y=             -2.0280    Z=             -0.0000  Tot=              2.0282
 Quadrupole moment (field-independent basis, Debye-Ang):
   XX=             -4.4728   YY=             -6.1013   ZZ=             -7.4972
   XY=             -0.1213   XZ=             -0.0000   YZ=              0.0000

 .3307812\CCSD=-76.330326\CCSD(T)=-76.338749\RMSD=2.877e-09\PG=CS [SG(H
 Normal termination of Gaussian 16 at Wed Feb  8 13:53:11 2023.
