 Gaussian 16, Revision C.01,
 Gaussian 16:  ES64L-G16RevC.01  3-Jul-2019

 ------------------------------------
 #P wB97XD/6-311g** scf(maxcycle=200)
 ------------------------------------

 --------------
 Gaussian input
 --------------
 Symbolic Z-matrix:
 Charge =  0 Multiplicity = 1

                         Standard orientation:
 ---------------------------------------------------------------------
 Center     Atomic      Atomic             Coordinates (Angstroms)
 Number     Number       Type             X           Y           Z
 ---------------------------------------------------------------------
      1          8           0        0.000000    0.106621    0.000000
      2          1           0        0.766067   -0.382686    0.000000
      3          1           0       -0.766067   -0.470286    0.000000
 ---------------------------------------------------------------------

 SCF Done:  E(RwB97XD) =  -76.4200927349     A.U. after   12 cycles

 The electronic state is 1-A'.
 Alpha  occ. eigenvalues --  -19.21849  -1.10956  -0.63047  -0.45312  -0.38676
 Alpha virt. eigenvalues --    0.12503   0.19739   0.48127   0.51485   0.84874
 Alpha virt. eigenvalues --    0.85540   0.95271   1.14909   1.33836   1.41532
 Alpha virt. eigenvalues --    1.58596   1.72640   2.07454   2.15170   2.42162

 Mulliken charges:
               1
     1  O   -0.506373
     2  H    0.253664
     3  H    0.252709
 Sum of Mulliken charges =  -0.00000

 Dipole moment (field-independent basis, Debye):
    X=              0.0401    Y=             -1.9960    Z=              0.0000  Tot=              1.9964
 Quadrupole moment (field-independent basis, Debye-Ang):
   XX=             -4.0220   YY=             -6.1602   ZZ=             -7.1203
   XY=              0.1457   XZ=              0.0000   YZ=              0.0000

 Normal termination of Gaussian 16 at Wed Feb  8 14:40:27 2023.
