 Gaussian 16, Revision C.01,
 Gaussian 16:  ES64L-G16RevC.01  3-Jul-2019

 ----------------------------------------
 #P CCSD(T)/aug-cc-pVDZ scf(maxcycle=200)
 ----------------------------------------

 --------------
 Gaussian input
 --------------
 Symbolic Z-matrix:
 Charge =  0 Multiplicity = 1

                         Standard orientation:
 ---------------------------------------------------------------------
 Center     Atomic      Atomic             Coordinates (Angstroms)
 Number     Number       Type             X           Y           Z
 ---------------------------------------------------------------------
      1          8           0        0.000000    0.135276   -0.000000
      2          1           0        0.677987   -0.611996    0.000000
      3          1           0       -0.677987   -0.470211    0.000000
 ---------------------------------------------------------------------

 SCF Done:  E(RHF) =  -76.0299255427     A.U. after   10 cycles
 E2 =    -0.2208439739D+00 EUMP2 =    -0.76250769516574D+02
 CCSD(T)
 CCSD(T)= -0.76263672001D+02

 The electronic state is 1-A'.
 Alpha  occ. eigenvalues --  -20.58273  -1.36924  -0.69003  -0.61196  -0.51339
 Alpha virt. eigenvalues --    0.03387   0.05919   0.17157   0.19827   0.22176
 Alpha virt. eigenvalues --    0.23564   0.28343   0.35464   0.37974   0.39184
 Alpha virt. eigenvalues --    0.41652   0.55256   0.63492   0.66282   0.78393

 Mulliken charges:
               1
     1  O   -0.287041
     2  H    0.193647
     3  H    0.093394
 Sum of Mulliken charges =  -0.00000

 Dipole moment (field-independent basis, Debye):
    X=             -0.0613    Y=             -2.2145    Z=              0.0000  Tot=              2.2153
 Quadrupole moment (field-independent basis, Debye-Ang):
   XX=             -4.9088   YY=             -5.8136   ZZ=             -7.5665
   XY=             -0.1922   XZ=              0.0000   YZ=             -0.0000

 2585274\CCSD=-76.258319\CCSD(T)=-76.263672\RMSD=7.943e-09\PG=CS [SG(H2
 Normal termination of Gaussian 16 at Wed Feb  8 14:50:08 2023.
