 Gaussian 16, Revision C.01,
 Gaussian 16:  ES64L-G16RevC.01  3-Jul-2019

 ----------------------------------------
 #P CCSD(T)/aug-cc-pVTZ scf(maxcycle=200)
 ----------------------------------------

 --------------
 Gaussian input
 --------------
 Symbolic Z-matrix:
 Charge =  0 Multiplicity = 1

                         Standard orientation:
 ---------------------------------------------------------------------
 Center     Atomic      Atomic             Coordinates (Angstroms)
 Number     Number       Type             X           Y           Z
 ---------------------------------------------------------------------
      1          8           0       -0.000000    0.000000    0.132472
      2          1           0        0.000000    0.622542   -0.529889
      3          1           0       -0.000000   -0.622542   -0.529889
 ---------------------------------------------------------------------

 SCF Done:  E(RHF) =  -76.0457120060     A.U. after    9 cycles
 E2 =    -0.2665695191D+00 EUMP2 =    -0.76312281525074D+02
 CCSD(T)
 CCSD(T)= -0.76325396528D+02

 The electronic state is 1-A1.
 Alpha  occ. eigenvalues --  -20.56462  -1.39705  -0.70211  -0.63148  -0.51927
 Alpha virt. eigenvalues --    0.02861   0.04895   0.13282   0.15913   0.17862
 Alpha virt. eigenvalues --    0.18704   0.22698   0.25021   0.27199   0.28631
 Alpha virt. eigenvalues --    0.30284   0.37374   0.44136   0.47650   0.59168

 Mulliken charges:
               1
     1  O   -0.373964
     2  H    0.186982
     3  H    0.186982
 Sum of Mulliken charges =   0.00000

 Dipole moment (field-independent basis, Debye):
    X=             -0.0000    Y=             -0.0000    Z=             -2.2067  Tot=              2.2067
 Quadrupole moment (field-independent basis, Debye-Ang):
   XX=             -7.4256   YY=             -5.0821   ZZ=             -5.6910
   XY=              0.0000   XZ=              0.0000   YZ=             -0.0000

 3175149\CCSD=-76.3170637\CCSD(T)=-76.3253965\RMSD=8.235e-09\PG=C02V [C
 Normal termination of Gaussian 16 at Wed Feb  8 13:47:38 2023.
