 Gaussian 16, Revision C.01,
 Gaussian 16:  ES64L-G16RevC.01  3-Jul-2019

 ----------------------------------------
 #P CCSD(T)/aug-cc-pVDZ scf(maxcycle=200)
 ----------------------------------------

 --------------
 Gaussian input
 --------------
 Symbolic Z-matrix:
 Charge =  0 Multiplicity = 1

                         Standard orientation:
 ---------------------------------------------------------------------
 Center     Atomic      Atomic             Coordinates (Angstroms)
 Number     Number       Type             X           Y           Z
 ---------------------------------------------------------------------
      1          8           0       -0.000000   -0.000000    0.106265
      2          1           0       -0.000000    0.857774   -0.425059
      3          1           0       -0.000000   -0.857774   -0.425059
 ---------------------------------------------------------------------

 SCF Done:  E(RHF) =  -76.0298883736     A.U. after   10 cycles
 E2 =    -0.2234138192D+00 EUMP2 =    -0.76253302192780D+02
 CCSD(T)
 CCSD(T)= -0.76266397669D+02

 The electronic state is 1-A1.
 Alpha  occ. eigenvalues --  -20.57915  -1.32400  -0.71111  -0.55319  -0.50137
 Alpha virt. eigenvalues --    0.03519   0.05654   0.17644   0.19813   0.21370
 Alpha virt. eigenvalues --    0.22861   0.28554   0.30860   0.37511   0.42106
 Alpha virt. eigenvalues --    0.44487   0.51842   0.63471   0.65054   0.82373

 Mulliken charges:
               1
     1  O   -0.442967
     2  H    0.221484
     3  H    0.221484
 Sum of Mulliken charges =   0.00000

 Dipole moment (field-independent basis, Debye):
    X=             -0.0000    Y=              0.0000    Z=             -1.8234  Tot=              1.8234
 Quadrupole moment (field-independent basis, Debye-Ang):
   XX=             -7.7385   YY=             -3.5799   ZZ=             -6.6770
   XY=              0.0000   XZ=              0.0000   YZ=              0.0000

 2610558\CCSD=-76.260833\CCSD(T)=-76.2663977\RMSD=7.712e-09\PG=C02V [C2
 Normal termination of Gaussian 16 at Wed Feb  8 14:51:22 2023.
