 Gaussian 16, Revision C.01,
 Gaussian 16:  ES64L-G16RevC.01  3-Jul-2019

 ----------------------------------------
 #P PBE1PBE/aug-cc-pVDZ scf(maxcycle=200)
 ----------------------------------------

 --------------
 Gaussian input
 --------------
 Symbolic Z-matrix:
 Charge =  0 Multiplicity = 1

                         Standard orientation:
 ---------------------------------------------------------------------
 Center     Atomic      Atomic             Coordinates (Angstroms)
 Number     Number       Type             X           Y           Z
 ---------------------------------------------------------------------
      1          8           0        0.000000    0.138368    0.000000
      2          1           0        0.627054   -0.587224   -0.000000
      3          1           0       -0.627054   -0.519723    0.000000
 ---------------------------------------------------------------------

 SCF Done:  E(RPBE1PBE) =  -76.3445145648     A.U. after    8 cycles

 The electronic state is 1-A'.
 Alpha  occ. eigenvalues --  -19.23314  -1.07834  -0.51862  -0.45291  -0.33934
 Alpha virt. eigenvalues --   -0.01388   0.03573   0.10870   0.13291   0.14890
 Alpha virt. eigenvalues --    0.17502   0.18619   0.26906   0.28019   0.30424
 Alpha virt. eigenvalues --    0.31319   0.47605   0.51244   0.55663   0.60848

 Mulliken charges:
               1
     1  O   -0.170260
     2  H    0.105474
     3  H    0.064786
 Sum of Mulliken charges =   0.00000

 Dipole moment (field-independent basis, Debye):
    X=             -0.0332    Y=             -2.1164    Z=             -0.0000  Tot=              2.1166
 Quadrupole moment (field-independent basis, Debye-Ang):
   XX=             -5.3276   YY=             -5.8404   ZZ=             -7.6490
   XY=             -0.0792   XZ=             -0.0000   YZ=              0.0000

 Normal termination of Gaussian 16 at Mon Mar 20 17:58:40 2023.
