 Gaussian 16, Revision C.01,
 Gaussian 16:  ES64L-G16RevC.01  3-Jul-2019

 ----------------------------------------
 #P PBE1PBE/aug-cc-pVDZ scf(maxcycle=200)
 ----------------------------------------

 --------------
 Gaussian input
 --------------
 Symbolic Z-matrix:
 Charge =  0 Multiplicity = 1

                         Standard orientation:
 ---------------------------------------------------------------------
 Center     Atomic      Atomic             Coordinates (Angstroms)
 Number     Number       Type             X           Y           Z
 ---------------------------------------------------------------------
      1          8           0        0.000000    0.103931   -0.000000
      2          1           0        0.775189   -0.460659   -0.000000
      3          1           0       -0.775189   -0.370792    0.000000
 ---------------------------------------------------------------------

 SCF Done:  E(RPBE1PBE) =  -76.3557929544     A.U. after    8 cycles

 The electronic state is 1-A'.
 Alpha  occ. eigenvalues --  -19.22341  -1.05444  -0.57644  -0.39884  -0.33381
 Alpha virt. eigenvalues --   -0.00942   0.03296   0.11422   0.13043   0.14339
 Alpha virt. eigenvalues --    0.16723   0.20207   0.23138   0.28922   0.32433
 Alpha virt. eigenvalues --    0.34990   0.44912   0.52443   0.54623   0.66544

 Mulliken charges:
               1
     1  O   -0.184907
     2  H    0.120408
     3  H    0.064499
 Sum of Mulliken charges =  -0.00000

 Dipole moment (field-independent basis, Debye):
    X=             -0.0199    Y=             -1.7340    Z=             -0.0000  Tot=              1.7341
 Quadrupole moment (field-independent basis, Debye-Ang):
   XX=             -4.2141   YY=             -6.6314   ZZ=             -7.7018
   XY=             -0.1632   XZ=             -0.0000   YZ=              0.0000

 Normal termination of Gaussian 16 at Mon Mar 20 17:34:10 2023.
