 Gaussian 16, Revision C.01,
 Gaussian 16:  ES64L-G16RevC.01  3-Jul-2019

 ---------------------------------
 #P B3LYP/6-31g* scf(maxcycle=200)
 ---------------------------------

 --------------
 Gaussian input
 --------------
 Symbolic Z-matrix:
 Charge =  0 Multiplicity = 1

                         Standard orientation:
 ---------------------------------------------------------------------
 Center     Atomic      Atomic             Coordinates (Angstroms)
 Number     Number       Type             X           Y           Z
 ---------------------------------------------------------------------
      1          8           0        0.000000    0.000000    0.139611
      2          1           0        0.000000    0.728561   -0.558444
      3          1           0       -0.000000   -0.728561   -0.558444
 ---------------------------------------------------------------------

 SCF Done:  E(RB3LYP) =  -76.4036526374     A.U. after   10 cycles

 The electronic state is 1-A1.
 Alpha  occ. eigenvalues --  -19.15076  -0.99113  -0.48336  -0.39311  -0.29244
 Alpha virt. eigenvalues --    0.04863   0.12958   0.72465   0.84249   0.88815
 Alpha virt. eigenvalues --    0.89490   1.04710   1.23318   1.71251   1.76259
 Alpha virt. eigenvalues --    1.77277   2.25529   2.46852   3.51126

 Mulliken charges:
               1
     1  O   -0.742448
     2  H    0.371224
     3  H    0.371224
 Sum of Mulliken charges =  -0.00000

 Dipole moment (field-independent basis, Debye):
    X=             -0.0000    Y=              0.0000    Z=             -2.2641  Tot=              2.2641
 Quadrupole moment (field-independent basis, Debye-Ang):
   XX=             -7.2854   YY=             -4.7706   ZZ=             -5.6998
   XY=              0.0000   XZ=              0.0000   YZ=             -0.0000

 Normal termination of Gaussian 16 at Wed Feb  8 14:52:34 2023.
