 Gaussian 16, Revision C.01,
 Gaussian 16:  ES64L-G16RevC.01  3-Jul-2019

 ----------------------------------------
 #P CCSD(T)/aug-cc-pVTZ scf(maxcycle=200)
 ----------------------------------------

 --------------
 Gaussian input
 --------------
 Symbolic Z-matrix:
 Charge =  0 Multiplicity = 1

                         Standard orientation:
 ---------------------------------------------------------------------
 Center     Atomic      Atomic             Coordinates (Angstroms)
 Number     Number       Type             X           Y           Z
 ---------------------------------------------------------------------
      1          8           0        0.000000    0.142189    0.000000
      2          1           0        0.642020   -0.501311    0.000000
      3          1           0       -0.642020   -0.636201    0.000000
 ---------------------------------------------------------------------

 SCF Done:  E(RHF) =  -76.0426251184     A.U. after   10 cycles
 E2 =    -0.2709538278D+00 EUMP2 =    -0.76313578946215D+02
 CCSD(T)
 CCSD(T)= -0.76326707769D+02

 The electronic state is 1-A'.
 Alpha  occ. eigenvalues --  -20.57454  -1.37156  -0.67584  -0.62247  -0.51591
 Alpha virt. eigenvalues --    0.02769   0.04900   0.13175   0.16142   0.17675
 Alpha virt. eigenvalues --    0.18841   0.22110   0.24783   0.27222   0.28243
 Alpha virt. eigenvalues --    0.30133   0.37123   0.42635   0.46889   0.58836

 Mulliken charges:
               1
     1  O   -0.443928
     2  H    0.180525
     3  H    0.263403
 Sum of Mulliken charges =   0.00000

 Dipole moment (field-independent basis, Debye):
    X=              0.0642    Y=             -2.2852    Z=              0.0000  Tot=              2.2861
 Quadrupole moment (field-independent basis, Debye-Ang):
   XX=             -5.1422   YY=             -5.6059   ZZ=             -7.5365
   XY=              0.1593   XZ=              0.0000   YZ=              0.0000

 .3183328\CCSD=-76.3178232\CCSD(T)=-76.3267078\RMSD=3.545e-09\PG=CS [SG
 Normal termination of Gaussian 16 at Wed Feb  8 13:51:38 2023.
