 Gaussian 16, Revision C.01,
 Gaussian 16:  ES64L-G16RevC.01  3-Jul-2019

 ----------------------------------------
 #P CCSD(T)/aug-cc-pVTZ scf(maxcycle=200)
 ----------------------------------------

 --------------
 Gaussian input
 --------------
 Symbolic Z-matrix:
 Charge =  0 Multiplicity = 1

                         Standard orientation:
 ---------------------------------------------------------------------
 Center     Atomic      Atomic             Coordinates (Angstroms)
 Number     Number       Type             X           Y           Z
 ---------------------------------------------------------------------
      1          8           0        0.000000    0.117755    0.000000
      2          1           0        0.754250   -0.389580    0.000000
      3          1           0       -0.754250   -0.552460    0.000000
 ---------------------------------------------------------------------

 SCF Done:  E(RHF) =  -76.0554755202     A.U. after   10 cycles
 E2 =    -0.2684607390D+00 EUMP2 =    -0.76323936259169D+02
 CCSD(T)
 CCSD(T)= -0.76337330326D+02

 The electronic state is 1-A'.
 Alpha  occ. eigenvalues --  -20.56699  -1.35517  -0.71758  -0.58388  -0.51044
 Alpha virt. eigenvalues --    0.02930   0.04772   0.13570   0.15843   0.17405
 Alpha virt. eigenvalues --    0.18342   0.22703   0.24519   0.26536   0.30075
 Alpha virt. eigenvalues --    0.31028   0.36588   0.43280   0.47054   0.59951

 Mulliken charges:
               1
     1  O   -0.430419
     2  H    0.170805
     3  H    0.259614
 Sum of Mulliken charges =  -0.00000

 Dipole moment (field-independent basis, Debye):
    X=              0.0442    Y=             -1.9873    Z=              0.0000  Tot=              1.9878
 Quadrupole moment (field-independent basis, Debye-Ang):
   XX=             -4.2640   YY=             -6.2110   ZZ=             -7.5597
   XY=              0.2729   XZ=              0.0000   YZ=              0.0000

 3291584\CCSD=-76.3286844\CCSD(T)=-76.3373303\RMSD=4.106e-09\PG=CS [SG(
 Normal termination of Gaussian 16 at Wed Feb  8 13:50:49 2023.
