 Gaussian 16, Revision C.01,
 Gaussian 16:  ES64L-G16RevC.01  3-Jul-2019

 ------------------------------------
 #P wB97XD/6-311g** scf(maxcycle=200)
 ------------------------------------

 --------------
 Gaussian input
 --------------
 Symbolic Z-matrix:
 Charge =  0 Multiplicity = 1

                         Standard orientation:
 ---------------------------------------------------------------------
 Center     Atomic      Atomic             Coordinates (Angstroms)
 Number     Number       Type             X           Y           Z
 ---------------------------------------------------------------------
      1          8           0        0.000000   -0.000000    0.142030
      2          1           0        0.000000    0.644490   -0.568120
      3          1           0       -0.000000   -0.644490   -0.568120
 ---------------------------------------------------------------------

 SCF Done:  E(RwB97XD) =  -76.4128989060     A.U. after   12 cycles

 The electronic state is 1-A1.
 Alpha  occ. eigenvalues --  -19.23531  -1.12127  -0.56973  -0.50435  -0.39206
 Alpha virt. eigenvalues --    0.11172   0.19287   0.44233   0.53182   0.85215
 Alpha virt. eigenvalues --    0.86045   0.96173   1.11908   1.18632   1.42213
 Alpha virt. eigenvalues --    1.43272   1.88347   1.97021   2.17518   2.43564

 Mulliken charges:
               1
     1  O   -0.421565
     2  H    0.210783
     3  H    0.210783
 Sum of Mulliken charges =  -0.00000

 Dipole moment (field-independent basis, Debye):
    X=             -0.0000    Y=             -0.0000    Z=             -2.3222  Tot=              2.3222
 Quadrupole moment (field-independent basis, Debye-Ang):
   XX=             -7.1558   YY=             -5.0873   ZZ=             -5.4945
   XY=              0.0000   XZ=              0.0000   YZ=              0.0000

 Normal termination of Gaussian 16 at Wed Feb  8 14:41:20 2023.
