 Gaussian 16, Revision C.01,
 Gaussian 16:  ES64L-G16RevC.01  3-Jul-2019

 ----------------------------------------
 #P CCSD(T)/aug-cc-pVTZ scf(maxcycle=200)
 ----------------------------------------

 --------------
 Gaussian input
 --------------
 Symbolic Z-matrix:
 Charge =  0 Multiplicity = 1

                         Standard orientation:
 ---------------------------------------------------------------------
 Center     Atomic      Atomic             Coordinates (Angstroms)
 Number     Number       Type             X           Y           Z
 ---------------------------------------------------------------------
      1          8           0        0.000000    0.092865    0.000000
      2          1           0        0.809229   -0.321174    0.000000
      3          1           0       -0.809229   -0.421750    0.000000
 ---------------------------------------------------------------------

 SCF Done:  E(RHF) =  -76.0549842950     A.U. after   10 cycles
 E2 =    -0.2660216021D+00 EUMP2 =    -0.76321005897120D+02
 CCSD(T)
 CCSD(T)= -0.76334256503D+02

 The electronic state is 1-A'.
 Alpha  occ. eigenvalues --  -20.55552  -1.35543  -0.75976  -0.55863  -0.50771
 Alpha virt. eigenvalues --    0.03054   0.04688   0.13774   0.15426   0.17132
 Alpha virt. eigenvalues --    0.17956   0.23415   0.24317   0.26020   0.31955
 Alpha virt. eigenvalues --    0.32483   0.36381   0.43945   0.47006   0.61366

 Mulliken charges:
               1
     1  O   -0.399054
     2  H    0.172846
     3  H    0.226208
 Sum of Mulliken charges =  -0.00000

 Dipole moment (field-independent basis, Debye):
    X=              0.0111    Y=             -1.6826    Z=              0.0000  Tot=              1.6827
 Quadrupole moment (field-independent basis, Debye-Ang):
   XX=             -3.6577   YY=             -6.6707   ZZ=             -7.5336
   XY=              0.2047   XZ=              0.0000   YZ=              0.0000

 263456\CCSD=-76.3258943\CCSD(T)=-76.3342565\RMSD=2.490e-09\PG=CS [SG(H
 Normal termination of Gaussian 16 at Wed Feb  8 13:49:54 2023.
