 Gaussian 16, Revision C.01,
 Gaussian 16:  ES64L-G16RevC.01  3-Jul-2019

 ----------------------------------------
 #P CCSD(T)/aug-cc-pVTZ scf(maxcycle=200)
 ----------------------------------------

 --------------
 Gaussian input
 --------------
 Symbolic Z-matrix:
 Charge =  0 Multiplicity = 1

                         Standard orientation:
 ---------------------------------------------------------------------
 Center     Atomic      Atomic             Coordinates (Angstroms)
 Number     Number       Type             X           Y           Z
 ---------------------------------------------------------------------
      1          8           0        0.000000    0.139927    0.000000
      2          1           0        0.654215   -0.628242    0.000000
      3          1           0       -0.654215   -0.491170   -0.000000
 ---------------------------------------------------------------------

 SCF Done:  E(RHF) =  -76.0450294913     A.U. after   10 cycles
 E2 =    -0.2706273714D+00 EUMP2 =    -0.76315656862734D+02
 CCSD(T)
 CCSD(T)= -0.76328830680D+02

 The electronic state is 1-A'.
 Alpha  occ. eigenvalues --  -20.57390  -1.36969  -0.68018  -0.61871  -0.51540
 Alpha virt. eigenvalues --    0.02788   0.04887   0.13223   0.16115   0.17665
 Alpha virt. eigenvalues --    0.18790   0.22165   0.24753   0.27168   0.28399
 Alpha virt. eigenvalues --    0.30197   0.37054   0.42753   0.46913   0.58930

 Mulliken charges:
               1
     1  O   -0.441494
     2  H    0.262520
     3  H    0.178975
 Sum of Mulliken charges =  -0.00000

 Dipole moment (field-independent basis, Debye):
    X=             -0.0627    Y=             -2.2576    Z=             -0.0000  Tot=              2.2585
 Quadrupole moment (field-independent basis, Debye-Ang):
   XX=             -5.0543   YY=             -5.6666   ZZ=             -7.5380
   XY=             -0.1685   XZ=             -0.0000   YZ=             -0.0000

 3204835\CCSD=-76.3199796\CCSD(T)=-76.3288307\RMSD=3.654e-09\PG=CS [SG(
 Normal termination of Gaussian 16 at Wed Feb  8 13:54:58 2023.
