 Gaussian 16, Revision C.01,
 Gaussian 16:  ES64L-G16RevC.01  3-Jul-2019

 ----------------------------------------
 #P PBE1PBE/aug-cc-pVDZ scf(maxcycle=200)
 ----------------------------------------

 --------------
 Gaussian input
 --------------
 Symbolic Z-matrix:
 Charge =  0 Multiplicity = 1

                         Standard orientation:
 ---------------------------------------------------------------------
 Center     Atomic      Atomic             Coordinates (Angstroms)
 Number     Number       Type             X           Y           Z
 ---------------------------------------------------------------------
      1          8           0        0.000000    0.137622    0.000000
      2          1           0        0.666206   -0.620171    0.000000
      3          1           0       -0.666206   -0.480804   -0.000000
 ---------------------------------------------------------------------

 SCF Done:  E(RPBE1PBE) =  -76.3479533255     A.U. after    8 cycles

 The electronic state is 1-A'.
 Alpha  occ. eigenvalues --  -19.23567  -1.06318  -0.51949  -0.44213  -0.33654
 Alpha virt. eigenvalues --   -0.01538   0.03425   0.10757   0.13295   0.14390
 Alpha virt. eigenvalues --    0.16964   0.18548   0.26263   0.27976   0.29825
 Alpha virt. eigenvalues --    0.31591   0.46882   0.50114   0.55186   0.61236

 Mulliken charges:
               1
     1  O   -0.212691
     2  H    0.149967
     3  H    0.062725
 Sum of Mulliken charges =   0.00000

 Dipole moment (field-independent basis, Debye):
    X=             -0.0626    Y=             -2.0840    Z=              0.0000  Tot=              2.0850
 Quadrupole moment (field-independent basis, Debye-Ang):
   XX=             -5.1535   YY=             -5.9378   ZZ=             -7.7142
   XY=             -0.1785   XZ=              0.0000   YZ=             -0.0000

 Normal termination of Gaussian 16 at Mon Mar 20 17:34:59 2023.
