 Gaussian 16, Revision C.01,
 Gaussian 16:  ES64L-G16RevC.01  3-Jul-2019

 ---------------------------------
 #P B3LYP/6-31g* scf(maxcycle=200)
 ---------------------------------

 --------------
 Gaussian input
 --------------
 Symbolic Z-matrix:
 Charge =  0 Multiplicity = 1

                         Standard orientation:
 ---------------------------------------------------------------------
 Center     Atomic      Atomic             Coordinates (Angstroms)
 Number     Number       Type             X           Y           Z
 ---------------------------------------------------------------------
      1          8           0       -0.000000   -0.000000    0.095733
      2          1           0       -0.000000    0.772761   -0.382933
      3          1           0       -0.000000   -0.772761   -0.382933
 ---------------------------------------------------------------------

 SCF Done:  E(RB3LYP) =  -76.3989312775     A.U. after    9 cycles

 The electronic state is 1-A1.
 Alpha  occ. eigenvalues --  -19.12116  -1.01356  -0.56270  -0.35106  -0.29191
 Alpha virt. eigenvalues --    0.08013   0.16999   0.86566   0.86621   0.89067
 Alpha virt. eigenvalues --    0.89313   1.09356   1.17575   1.72143   1.75586
 Alpha virt. eigenvalues --    1.78584   2.38893   2.65948   3.60669

 Mulliken charges:
               1
     1  O   -0.802510
     2  H    0.401255
     3  H    0.401255
 Sum of Mulliken charges =  -0.00000

 Dipole moment (field-independent basis, Debye):
    X=             -0.0000    Y=             -0.0000    Z=             -1.8554  Tot=              1.8554
 Quadrupole moment (field-independent basis, Debye-Ang):
   XX=             -7.0798   YY=             -3.8565   ZZ=             -6.2547
   XY=              0.0000   XZ=              0.0000   YZ=              0.0000

 Normal termination of Gaussian 16 at Wed Feb  8 14:49:48 2023.
