 Gaussian 16, Revision C.01,
 Gaussian 16:  ES64L-G16RevC.01  3-Jul-2019

 ----------------------------------------
 #P CCSD(T)/aug-cc-pVTZ scf(maxcycle=200)
 ----------------------------------------

 --------------
 Gaussian input
 --------------
 Symbolic Z-matrix:
 Charge =  0 Multiplicity = 1

                         Standard orientation:
 ---------------------------------------------------------------------
 Center     Atomic      Atomic             Coordinates (Angstroms)
 Number     Number       Type             X           Y           Z
 ---------------------------------------------------------------------
      1          8           0        0.000000    0.000000    0.114826
      2          1           0       -0.000000    0.768152   -0.459303
      3          1           0       -0.000000   -0.768152   -0.459303
 ---------------------------------------------------------------------

 SCF Done:  E(RHF) =  -76.0605094323     A.U. after   10 cycles
 E2 =    -0.2683529415D+00 EUMP2 =    -0.76328862373742D+02
 CCSD(T)
 CCSD(T)= -0.76342199386D+02

 The electronic state is 1-A1.
 Alpha  occ. eigenvalues --  -20.56664  -1.35131  -0.72058  -0.58083  -0.50964
 Alpha virt. eigenvalues --    0.02954   0.04756   0.13623   0.15827   0.17471
 Alpha virt. eigenvalues --    0.18251   0.22809   0.24469   0.26454   0.30256
 Alpha virt. eigenvalues --    0.31176   0.36548   0.43777   0.46652   0.60084

 Mulliken charges:
               1
     1  O   -0.441012
     2  H    0.220506
     3  H    0.220506
 Sum of Mulliken charges =  -0.00000

 Dipole moment (field-independent basis, Debye):
    X=             -0.0000    Y=             -0.0000    Z=             -1.9518  Tot=              1.9518
 Quadrupole moment (field-independent basis, Debye-Ang):
   XX=             -7.5654   YY=             -4.1559   ZZ=             -6.3046
   XY=              0.0000   XZ=              0.0000   YZ=              0.0000

 .3340473\CCSD=-76.3335686\CCSD(T)=-76.3421994\RMSD=3.852e-09\PG=C02V [
 Normal termination of Gaussian 16 at Wed Feb  8 13:53:32 2023.
