 Gaussian 16, Revision C.01,
 Gaussian 16:  ES64L-G16RevC.01  3-Jul-2019

 ------------------------------
 #P HF/6-31g* scf(maxcycle=200)
 ------------------------------

 --------------
 Gaussian input
 --------------
 Symbolic Z-matrix:
 Charge =  0 Multiplicity = 1

                         Standard orientation:
 ---------------------------------------------------------------------
 Center     Atomic      Atomic             Coordinates (Angstroms)
 Number     Number       Type             X           Y           Z
 ---------------------------------------------------------------------
      1          8           0        0.000000    0.000000    0.111364
      2          1           0        0.000000    0.718494   -0.445455
      3          1           0       -0.000000   -0.718494   -0.445455
 ---------------------------------------------------------------------

 SCF Done:  E(RHF) =  -76.0071598880     A.U. after   10 cycles

 The electronic state is 1-A1.
 Alpha  occ. eigenvalues --  -20.55082  -1.36855  -0.73425  -0.58011  -0.50168
 Alpha virt. eigenvalues --    0.22049   0.31643   1.04379   1.13640   1.16748
 Alpha virt. eigenvalues --    1.23361   1.40051   1.43781   2.00750   2.02194
 Alpha virt. eigenvalues --    2.05907   2.68496   3.03327   3.99632

 Mulliken charges:
               1
     1  O   -0.864797
     2  H    0.432399
     3  H    0.432399
 Sum of Mulliken charges =   0.00000

 Dipole moment (field-independent basis, Debye):
    X=             -0.0000    Y=              0.0000    Z=             -2.1800  Tot=              2.1800
 Quadrupole moment (field-independent basis, Debye-Ang):
   XX=             -7.1243   YY=             -4.2262   ZZ=             -5.9559
   XY=              0.0000   XZ=              0.0000   YZ=             -0.0000

 Normal termination of Gaussian 16 at Wed Feb  8 15:04:51 2023.
