 Gaussian 16, Revision C.01,
 Gaussian 16:  ES64L-G16RevC.01  3-Jul-2019

 ---------------------------------
 #P B3LYP/6-31g* scf(maxcycle=200)
 ---------------------------------

 --------------
 Gaussian input
 --------------
 Symbolic Z-matrix:
 Charge =  0 Multiplicity = 1

                         Standard orientation:
 ---------------------------------------------------------------------
 Center     Atomic      Atomic             Coordinates (Angstroms)
 Number     Number       Type             X           Y           Z
 ---------------------------------------------------------------------
      1          8           0        0.000000    0.097826    0.000000
      2          1           0        0.852703   -0.441598    0.000000
      3          1           0       -0.852703   -0.341012   -0.000000
 ---------------------------------------------------------------------

 SCF Done:  E(RB3LYP) =  -76.4001564315     A.U. after    9 cycles

 The electronic state is 1-A'.
 Alpha  occ. eigenvalues --  -19.13042  -0.97826  -0.53541  -0.33722  -0.28374
 Alpha virt. eigenvalues --    0.05518   0.14840   0.76807   0.84349   0.89560
 Alpha virt. eigenvalues --    0.89628   1.08824   1.14450   1.73849   1.78025
 Alpha virt. eigenvalues --    1.80163   2.30926   2.51449   3.56938

 Mulliken charges:
               1
     1  O   -0.803667
     2  H    0.399007
     3  H    0.404660
 Sum of Mulliken charges =  -0.00000

 Dipole moment (field-independent basis, Debye):
    X=             -0.0399    Y=             -1.8158    Z=             -0.0000  Tot=              1.8163
 Quadrupole moment (field-independent basis, Debye-Ang):
   XX=             -3.5133   YY=             -6.4002   ZZ=             -7.2308
   XY=             -0.1877   XZ=              0.0000   YZ=             -0.0000

 Normal termination of Gaussian 16 at Wed Feb  8 14:52:28 2023.
