 Gaussian 16, Revision C.01,
 Gaussian 16:  ES64L-G16RevC.01  3-Jul-2019

 ----------------------------------------
 #P CCSD(T)/aug-cc-pVTZ scf(maxcycle=200)
 ----------------------------------------

 --------------
 Gaussian input
 --------------
 Symbolic Z-matrix:
 Charge =  0 Multiplicity = 1

                         Standard orientation:
 ---------------------------------------------------------------------
 Center     Atomic      Atomic             Coordinates (Angstroms)
 Number     Number       Type             X           Y           Z
 ---------------------------------------------------------------------
      1          8           0        0.000000   -0.000000    0.109243
      2          1           0       -0.000000    0.848370   -0.436971
      3          1           0       -0.000000   -0.848370   -0.436971
 ---------------------------------------------------------------------

 SCF Done:  E(RHF) =  -76.0498346035     A.U. after   10 cycles
 E2 =    -0.2719684353D+00 EUMP2 =    -0.76321803038855D+02
 CCSD(T)
 CCSD(T)= -0.76335197878D+02

 The electronic state is 1-A1.
 Alpha  occ. eigenvalues --  -20.57084  -1.32225  -0.70649  -0.55642  -0.50298
 Alpha virt. eigenvalues --    0.02924   0.04683   0.13683   0.15958   0.17001
 Alpha virt. eigenvalues --    0.18044   0.22649   0.24133   0.26104   0.30906
 Alpha virt. eigenvalues --    0.31599   0.36345   0.42478   0.45738   0.60379

 Mulliken charges:
               1
     1  O   -0.517597
     2  H    0.258798
     3  H    0.258798
 Sum of Mulliken charges =  -0.00000

 Dipole moment (field-independent basis, Debye):
    X=             -0.0000    Y=             -0.0000    Z=             -1.8453  Tot=              1.8453
 Quadrupole moment (field-independent basis, Debye-Ang):
   XX=             -7.6967   YY=             -3.6447   ZZ=             -6.5927
   XY=              0.0000   XZ=              0.0000   YZ=              0.0000

 6138\CCSD=-76.3260816\CCSD(T)=-76.3351979\RMSD=5.846e-09\PG=C02V [C2(O
 Normal termination of Gaussian 16 at Wed Feb  8 13:58:01 2023.
