 Gaussian 16, Revision C.01,
 Gaussian 16:  ES64L-G16RevC.01  3-Jul-2019

 ------------------------------
 #P HF/6-31g* scf(maxcycle=200)
 ------------------------------

 --------------
 Gaussian input
 --------------
 Symbolic Z-matrix:
 Charge =  0 Multiplicity = 1

                         Standard orientation:
 ---------------------------------------------------------------------
 Center     Atomic      Atomic             Coordinates (Angstroms)
 Number     Number       Type             X           Y           Z
 ---------------------------------------------------------------------
      1          8           0        0.000000    0.000000    0.122709
      2          1           0       -0.000000    0.737052   -0.490835
      3          1           0       -0.000000   -0.737052   -0.490835
 ---------------------------------------------------------------------

 SCF Done:  E(RHF) =  -76.0098098289     A.U. after   10 cycles

 The electronic state is 1-A1.
 Alpha  occ. eigenvalues --  -20.56298  -1.34447  -0.69819  -0.57915  -0.49943
 Alpha virt. eigenvalues --    0.20956   0.30326   1.00442   1.13310   1.16665
 Alpha virt. eigenvalues --    1.18395   1.37683   1.45004   2.00907   2.03744
 Alpha virt. eigenvalues --    2.06328   2.62100   2.93504   3.96165

 Mulliken charges:
               1
     1  O   -0.858672
     2  H    0.429336
     3  H    0.429336
 Sum of Mulliken charges =  -0.00000

 Dipole moment (field-independent basis, Debye):
    X=             -0.0000    Y=             -0.0000    Z=             -2.2962  Tot=              2.2962
 Quadrupole moment (field-independent basis, Debye-Ang):
   XX=             -7.2309   YY=             -4.3173   ZZ=             -5.8676
   XY=              0.0000   XZ=              0.0000   YZ=              0.0000

 Normal termination of Gaussian 16 at Wed Feb  8 15:06:13 2023.
