 Gaussian 16, Revision C.01,
 Gaussian 16:  ES64L-G16RevC.01  3-Jul-2019

 ----------------------------------------
 #P PBE1PBE/aug-cc-pVDZ scf(maxcycle=200)
 ----------------------------------------

 --------------
 Gaussian input
 --------------
 Symbolic Z-matrix:
 Charge =  0 Multiplicity = 1

                         Standard orientation:
 ---------------------------------------------------------------------
 Center     Atomic      Atomic             Coordinates (Angstroms)
 Number     Number       Type             X           Y           Z
 ---------------------------------------------------------------------
      1          8           0        0.000000    0.000000    0.113855
      2          1           0       -0.000000    0.708667   -0.455419
      3          1           0       -0.000000   -0.708667   -0.455419
 ---------------------------------------------------------------------

 SCF Done:  E(RPBE1PBE) =  -76.3534886826     A.U. after    8 cycles

 The electronic state is 1-A1.
 Alpha  occ. eigenvalues --  -19.22312  -1.07338  -0.56829  -0.41985  -0.33792
 Alpha virt. eigenvalues --   -0.00859   0.03492   0.11362   0.13082   0.15016
 Alpha virt. eigenvalues --    0.17244   0.20060   0.24837   0.29726   0.30925
 Alpha virt. eigenvalues --    0.33850   0.46384   0.53265   0.55178   0.65007

 Mulliken charges:
               1
     1  O   -0.108013
     2  H    0.054006
     3  H    0.054006
 Sum of Mulliken charges =  -0.00000

 Dipole moment (field-independent basis, Debye):
    X=             -0.0000    Y=              0.0000    Z=             -1.8702  Tot=              1.8702
 Quadrupole moment (field-independent basis, Debye-Ang):
   XX=             -7.6172   YY=             -4.6455   ZZ=             -6.3386
   XY=              0.0000   XZ=              0.0000   YZ=              0.0000

 Normal termination of Gaussian 16 at Mon Mar 20 17:32:59 2023.
