 Gaussian 16, Revision C.01,
 Gaussian 16:  ES64L-G16RevC.01  3-Jul-2019

 -----------------------------------
 #P HF/aug-cc-pVDZ scf(maxcycle=200)
 -----------------------------------

 --------------
 Gaussian input
 --------------
 Symbolic Z-matrix:
 Charge =  0 Multiplicity = 1

                         Standard orientation:
 ---------------------------------------------------------------------
 Center     Atomic      Atomic             Coordinates (Angstroms)
 Number     Number       Type             X           Y           Z
 ---------------------------------------------------------------------
      1          8           0        0.000000    0.100788   -0.000000
      2          1           0        0.844123   -0.451967   -0.000000
      3          1           0       -0.844123   -0.354336    0.000000
 ---------------------------------------------------------------------

 SCF Done:  E(RHF) =  -76.0328868943     A.U. after   10 cycles

 The electronic state is 1-A'.
 Alpha  occ. eigenvalues --  -20.57422  -1.33474  -0.72833  -0.55382  -0.50278
 Alpha virt. eigenvalues --    0.03581   0.05654   0.17621   0.19659   0.21554
 Alpha virt. eigenvalues --    0.22750   0.29265   0.30996   0.37595   0.42903
 Alpha virt. eigenvalues --    0.45201   0.52018   0.63904   0.65589   0.83823

 Mulliken charges:
               1
     1  O   -0.397238
     2  H    0.228121
     3  H    0.169117
 Sum of Mulliken charges =   0.00000

 Dipole moment (field-independent basis, Debye):
    X=             -0.0128    Y=             -1.7712    Z=             -0.0000  Tot=              1.7713
 Quadrupole moment (field-independent basis, Debye-Ang):
   XX=             -3.5892   YY=             -6.7010   ZZ=             -7.6844
   XY=             -0.2032   XZ=             -0.0000   YZ=              0.0000

 Normal termination of Gaussian 16 at Mon Feb 20 10:17:09 2023.
