 Gaussian 16, Revision C.01,
 Gaussian 16:  ES64L-G16RevC.01  3-Jul-2019

 -----------------------------------
 #P HF/aug-cc-pVDZ scf(maxcycle=200)
 -----------------------------------

 --------------
 Gaussian input
 --------------
 Symbolic Z-matrix:
 Charge =  0 Multiplicity = 1

                         Standard orientation:
 ---------------------------------------------------------------------
 Center     Atomic      Atomic             Coordinates (Angstroms)
 Number     Number       Type             X           Y           Z
 ---------------------------------------------------------------------
      1          8           0        0.000000    0.128584    0.000000
      2          1           0        0.744360   -0.552599    0.000000
      3          1           0       -0.744360   -0.476073   -0.000000
 ---------------------------------------------------------------------

 SCF Done:  E(RHF) =  -76.0365056155     A.U. after   10 cycles

 The electronic state is 1-A'.
 Alpha  occ. eigenvalues --  -20.58429  -1.34808  -0.69345  -0.59211  -0.50915
 Alpha virt. eigenvalues --    0.03438   0.05833   0.17366   0.19859   0.22091
 Alpha virt. eigenvalues --    0.23420   0.27952   0.33786   0.38706   0.38887
 Alpha virt. eigenvalues --    0.42142   0.54129   0.63690   0.65909   0.78670

 Mulliken charges:
               1
     1  O   -0.345031
     2  H    0.198908
     3  H    0.146123
 Sum of Mulliken charges =  -0.00000

 Dipole moment (field-independent basis, Debye):
    X=             -0.0269    Y=             -2.1174    Z=             -0.0000  Tot=              2.1175
 Quadrupole moment (field-independent basis, Debye-Ang):
   XX=             -4.5000   YY=             -6.0786   ZZ=             -7.6402
   XY=             -0.1206   XZ=              0.0000   YZ=             -0.0000

 Normal termination of Gaussian 16 at Mon Feb 20 10:16:58 2023.
