 Gaussian 16, Revision C.01,
 Gaussian 16:  ES64L-G16RevC.01  3-Jul-2019

 ------------------------------------
 #P wB97XD/6-311g** scf(maxcycle=200)
 ------------------------------------

 --------------
 Gaussian input
 --------------
 Symbolic Z-matrix:
 Charge =  0 Multiplicity = 1

                         Standard orientation:
 ---------------------------------------------------------------------
 Center     Atomic      Atomic             Coordinates (Angstroms)
 Number     Number       Type             X           Y           Z
 ---------------------------------------------------------------------
      1          8           0        0.000000    0.125966    0.000000
      2          1           0        0.755426   -0.542923   -0.000000
      3          1           0       -0.755426   -0.464807    0.000000
 ---------------------------------------------------------------------

 SCF Done:  E(RwB97XD) =  -76.4208366674     A.U. after   12 cycles

 The electronic state is 1-A'.
 Alpha  occ. eigenvalues --  -19.23207  -1.09582  -0.59366  -0.46872  -0.38566
 Alpha virt. eigenvalues --    0.11216   0.18684   0.44459   0.50730   0.85456
 Alpha virt. eigenvalues --    0.85473   0.95078   1.16194   1.28387   1.35882
 Alpha virt. eigenvalues --    1.52263   1.75020   1.96442   2.13474   2.37131

 Mulliken charges:
               1
     1  O   -0.476085
     2  H    0.237705
     3  H    0.238380
 Sum of Mulliken charges =  -0.00000

 Dipole moment (field-independent basis, Debye):
    X=             -0.0447    Y=             -2.1617    Z=             -0.0000  Tot=              2.1621
 Quadrupole moment (field-independent basis, Debye-Ang):
   XX=             -4.3605   YY=             -5.9243   ZZ=             -7.2214
   XY=             -0.1131   XZ=              0.0000   YZ=              0.0000

 Normal termination of Gaussian 16 at Wed Feb  8 14:42:36 2023.
