 Gaussian 16, Revision C.01,
 Gaussian 16:  ES64L-G16RevC.01  3-Jul-2019

 ---------------------------------
 #P B3LYP/6-31g* scf(maxcycle=200)
 ---------------------------------

 --------------
 Gaussian input
 --------------
 Symbolic Z-matrix:
 Charge =  0 Multiplicity = 1

                         Standard orientation:
 ---------------------------------------------------------------------
 Center     Atomic      Atomic             Coordinates (Angstroms)
 Number     Number       Type             X           Y           Z
 ---------------------------------------------------------------------
      1          8           0        0.000000    0.133907    0.000000
      2          1           0        0.650757   -0.500755    0.000000
      3          1           0       -0.650757   -0.570505    0.000000
 ---------------------------------------------------------------------

 SCF Done:  E(RB3LYP) =  -76.3970507123     A.U. after    9 cycles

 The electronic state is 1-A'.
 Alpha  occ. eigenvalues --  -19.13893  -1.03048  -0.49978  -0.40635  -0.29863
 Alpha virt. eigenvalues --    0.06443   0.15881   0.74086   0.87755   0.88727
 Alpha virt. eigenvalues --    0.95358   1.06931   1.25090   1.68802   1.75045
 Alpha virt. eigenvalues --    1.75654   2.37003   2.57350   3.53735

 Mulliken charges:
               1
     1  O   -0.755295
     2  H    0.382276
     3  H    0.373019
 Sum of Mulliken charges =  -0.00000

 Dipole moment (field-independent basis, Debye):
    X=              0.0538    Y=             -2.2970    Z=              0.0000  Tot=              2.2976
 Quadrupole moment (field-independent basis, Debye-Ang):
   XX=             -4.9898   YY=             -5.5892   ZZ=             -7.1410
   XY=              0.0703   XZ=              0.0000   YZ=              0.0000

 Normal termination of Gaussian 16 at Wed Feb  8 14:49:58 2023.
