 Gaussian 16, Revision C.01,
 Gaussian 16:  ES64L-G16RevC.01  3-Jul-2019

 ------------------------------------
 #P wB97XD/6-311g** scf(maxcycle=200)
 ------------------------------------

 --------------
 Gaussian input
 --------------
 Symbolic Z-matrix:
 Charge =  0 Multiplicity = 1

                         Standard orientation:
 ---------------------------------------------------------------------
 Center     Atomic      Atomic             Coordinates (Angstroms)
 Number     Number       Type             X           Y           Z
 ---------------------------------------------------------------------
      1          8           0       -0.000000   -0.000000    0.130255
      2          1           0        0.000000    0.703931   -0.521022
      3          1           0       -0.000000   -0.703931   -0.521022
 ---------------------------------------------------------------------

 SCF Done:  E(RwB97XD) =  -76.4209808780     A.U. after   12 cycles

 The electronic state is 1-A1.
 Alpha  occ. eigenvalues --  -19.23090  -1.11136  -0.59117  -0.48318  -0.38924
 Alpha virt. eigenvalues --    0.11607   0.19236   0.45091   0.52968   0.85360
 Alpha virt. eigenvalues --    0.85602   0.95706   1.16600   1.19668   1.38654
 Alpha virt. eigenvalues --    1.48942   1.81679   1.98027   2.17373   2.37918

 Mulliken charges:
               1
     1  O   -0.450986
     2  H    0.225493
     3  H    0.225493
 Sum of Mulliken charges =  -0.00000

 Dipole moment (field-independent basis, Debye):
    X=             -0.0000    Y=              0.0000    Z=             -2.2186  Tot=              2.2186
 Quadrupole moment (field-independent basis, Debye-Ang):
   XX=             -7.1621   YY=             -4.6560   ZZ=             -5.7632
   XY=              0.0000   XZ=              0.0000   YZ=              0.0000

 Normal termination of Gaussian 16 at Wed Feb  8 14:41:27 2023.
