 Gaussian 16, Revision C.01,
 Gaussian 16:  ES64L-G16RevC.01  3-Jul-2019

 ----------------------------------------
 #P PBE1PBE/aug-cc-pVDZ scf(maxcycle=200)
 ----------------------------------------

 --------------
 Gaussian input
 --------------
 Symbolic Z-matrix:
 Charge =  0 Multiplicity = 1

                         Standard orientation:
 ---------------------------------------------------------------------
 Center     Atomic      Atomic             Coordinates (Angstroms)
 Number     Number       Type             X           Y           Z
 ---------------------------------------------------------------------
      1          8           0        0.000000    0.133907    0.000000
      2          1           0        0.650757   -0.500755    0.000000
      3          1           0       -0.650757   -0.570505    0.000000
 ---------------------------------------------------------------------

 SCF Done:  E(RPBE1PBE) =  -76.3489195400     A.U. after    8 cycles

 The electronic state is 1-A'.
 Alpha  occ. eigenvalues --  -19.23191  -1.07413  -0.52798  -0.44478  -0.33850
 Alpha virt. eigenvalues --   -0.01294   0.03533   0.10983   0.13260   0.14882
 Alpha virt. eigenvalues --    0.17400   0.18739   0.26586   0.28281   0.30256
 Alpha virt. eigenvalues --    0.31714   0.47276   0.51527   0.55488   0.61413

 Mulliken charges:
               1
     1  O   -0.164401
     2  H    0.060593
     3  H    0.103808
 Sum of Mulliken charges =  -0.00000

 Dipole moment (field-independent basis, Debye):
    X=              0.0317    Y=             -2.0684    Z=              0.0000  Tot=              2.0686
 Quadrupole moment (field-independent basis, Debye-Ang):
   XX=             -5.1666   YY=             -5.9525   ZZ=             -7.6551
   XY=              0.0882   XZ=              0.0000   YZ=              0.0000

 Normal termination of Gaussian 16 at Mon Mar 20 17:33:21 2023.
