 Gaussian 16, Revision C.01,
 Gaussian 16:  ES64L-G16RevC.01  3-Jul-2019

 ---------------------------------
 #P B3LYP/6-31g* scf(maxcycle=200)
 ---------------------------------

 --------------
 Gaussian input
 --------------
 Symbolic Z-matrix:
 Charge =  0 Multiplicity = 1

                         Standard orientation:
 ---------------------------------------------------------------------
 Center     Atomic      Atomic             Coordinates (Angstroms)
 Number     Number       Type             X           Y           Z
 ---------------------------------------------------------------------
      1          8           0        0.000000    0.000000    0.092327
      2          1           0       -0.000000    0.840580   -0.369308
      3          1           0       -0.000000   -0.840580   -0.369308
 ---------------------------------------------------------------------

 SCF Done:  E(RB3LYP) =  -76.4006780104     A.U. after    9 cycles

 The electronic state is 1-A1.
 Alpha  occ. eigenvalues --  -19.12537  -0.98621  -0.54852  -0.33516  -0.28497
 Alpha virt. eigenvalues --    0.06383   0.15627   0.78281   0.86500   0.89571
 Alpha virt. eigenvalues --    0.89571   1.09371   1.14918   1.73072   1.78113
 Alpha virt. eigenvalues --    1.80039   2.36070   2.53100   3.58599

 Mulliken charges:
               1
     1  O   -0.812953
     2  H    0.406477
     3  H    0.406477
 Sum of Mulliken charges =  -0.00000

 Dipole moment (field-independent basis, Debye):
    X=             -0.0000    Y=             -0.0000    Z=             -1.7686  Tot=              1.7686
 Quadrupole moment (field-independent basis, Debye-Ang):
   XX=             -7.1817   YY=             -3.4843   ZZ=             -6.4356
   XY=              0.0000   XZ=              0.0000   YZ=             -0.0000

 Normal termination of Gaussian 16 at Wed Feb  8 14:51:25 2023.
