 Gaussian 16, Revision C.01,
 Gaussian 16:  ES64L-G16RevC.01  3-Jul-2019

 -----------------------------------
 #P HF/aug-cc-pVDZ scf(maxcycle=200)
 -----------------------------------

 --------------
 Gaussian input
 --------------
 Symbolic Z-matrix:
 Charge =  0 Multiplicity = 1

                         Standard orientation:
 ---------------------------------------------------------------------
 Center     Atomic      Atomic             Coordinates (Angstroms)
 Number     Number       Type             X           Y           Z
 ---------------------------------------------------------------------
      1          8           0        0.000000    0.098458    0.000000
      2          1           0        0.792706   -0.346400    0.000000
      3          1           0       -0.792706   -0.441263    0.000000
 ---------------------------------------------------------------------

 SCF Done:  E(RHF) =  -76.0375524813     A.U. after   10 cycles

 The electronic state is 1-A'.
 Alpha  occ. eigenvalues --  -20.56754  -1.36114  -0.75494  -0.56655  -0.50810
 Alpha virt. eigenvalues --    0.03666   0.05701   0.17471   0.19401   0.22162
 Alpha virt. eigenvalues --    0.22703   0.30336   0.31941   0.38101   0.43204
 Alpha virt. eigenvalues --    0.45629   0.53039   0.65093   0.66141   0.85600

 Mulliken charges:
               1
     1  O   -0.277276
     2  H    0.108207
     3  H    0.169069
 Sum of Mulliken charges =   0.00000

 Dipole moment (field-independent basis, Debye):
    X=              0.0157    Y=             -1.7766    Z=              0.0000  Tot=              1.7767
 Quadrupole moment (field-independent basis, Debye-Ang):
   XX=             -3.8500   YY=             -6.5850   ZZ=             -7.5571
   XY=              0.1865   XZ=              0.0000   YZ=              0.0000

 Normal termination of Gaussian 16 at Mon Feb 20 10:27:14 2023.
