 Gaussian 16, Revision C.01,
 Gaussian 16:  ES64L-G16RevC.01  3-Jul-2019

 ------------------------------
 #P HF/6-31g* scf(maxcycle=200)
 ------------------------------

 --------------
 Gaussian input
 --------------
 Symbolic Z-matrix:
 Charge =  0 Multiplicity = 1

                         Standard orientation:
 ---------------------------------------------------------------------
 Center     Atomic      Atomic             Coordinates (Angstroms)
 Number     Number       Type             X           Y           Z
 ---------------------------------------------------------------------
      1          8           0       -0.000000   -0.000000    0.127779
      2          1           0       -0.000000    0.715190   -0.511114
      3          1           0       -0.000000   -0.715190   -0.511114
 ---------------------------------------------------------------------

 SCF Done:  E(RHF) =  -76.0081698375     A.U. after   10 cycles

 The electronic state is 1-A1.
 Alpha  occ. eigenvalues --  -20.56505  -1.34816  -0.69010  -0.58753  -0.50097
 Alpha virt. eigenvalues --    0.20839   0.30284   0.98970   1.13178   1.16558
 Alpha virt. eigenvalues --    1.19695   1.37370   1.46671   1.99922   2.04070
 Alpha virt. eigenvalues --    2.05851   2.62966   2.91908   3.95326

 Mulliken charges:
               1
     1  O   -0.851797
     2  H    0.425898
     3  H    0.425898
 Sum of Mulliken charges =  -0.00000

 Dipole moment (field-independent basis, Debye):
    X=             -0.0000    Y=             -0.0000    Z=             -2.3624  Tot=              2.3624
 Quadrupole moment (field-independent basis, Debye-Ang):
   XX=             -7.2319   YY=             -4.5050   ZZ=             -5.7565
   XY=              0.0000   XZ=              0.0000   YZ=              0.0000

 Normal termination of Gaussian 16 at Wed Feb  8 15:06:12 2023.
