 Gaussian 16, Revision C.01,
 Gaussian 16:  ES64L-G16RevC.01  3-Jul-2019

 -----------------------------------
 #P HF/aug-cc-pVDZ scf(maxcycle=200)
 -----------------------------------

 --------------
 Gaussian input
 --------------
 Symbolic Z-matrix:
 Charge =  0 Multiplicity = 1

                         Standard orientation:
 ---------------------------------------------------------------------
 Center     Atomic      Atomic             Coordinates (Angstroms)
 Number     Number       Type             X           Y           Z
 ---------------------------------------------------------------------
      1          8           0        0.000000    0.095642   -0.000000
      2          1           0        0.826707   -0.482837    0.000000
      3          1           0       -0.826707   -0.282296   -0.000000
 ---------------------------------------------------------------------

 SCF Done:  E(RHF) =  -76.0307666455     A.U. after   10 cycles

 The electronic state is 1-A'.
 Alpha  occ. eigenvalues --  -20.56892  -1.34745  -0.74634  -0.55421  -0.50452
 Alpha virt. eigenvalues --    0.03630   0.05655   0.17575   0.19489   0.21634
 Alpha virt. eigenvalues --    0.22660   0.29554   0.31584   0.37658   0.43725
 Alpha virt. eigenvalues --    0.45967   0.52221   0.63838   0.66293   0.84536

 Mulliken charges:
               1
     1  O   -0.348082
     2  H    0.234794
     3  H    0.113288
 Sum of Mulliken charges =  -0.00000

 Dipole moment (field-independent basis, Debye):
    X=             -0.0235    Y=             -1.7220    Z=              0.0000  Tot=              1.7222
 Quadrupole moment (field-independent basis, Debye-Ang):
   XX=             -3.6284   YY=             -6.6884   ZZ=             -7.6270
   XY=             -0.4187   XZ=              0.0000   YZ=             -0.0000

 Normal termination of Gaussian 16 at Mon Feb 20 10:28:59 2023.
