 Gaussian 16, Revision C.01,
 Gaussian 16:  ES64L-G16RevC.01  3-Jul-2019

 ----------------------------------------
 #P CCSD(T)/aug-cc-pVTZ scf(maxcycle=200)
 ----------------------------------------

 --------------
 Gaussian input
 --------------
 Symbolic Z-matrix:
 Charge =  0 Multiplicity = 1

                         Standard orientation:
 ---------------------------------------------------------------------
 Center     Atomic      Atomic             Coordinates (Angstroms)
 Number     Number       Type             X           Y           Z
 ---------------------------------------------------------------------
      1          8           0       -0.000000   -0.000000    0.095733
      2          1           0       -0.000000    0.772761   -0.382933
      3          1           0       -0.000000   -0.772761   -0.382933
 ---------------------------------------------------------------------

 SCF Done:  E(RHF) =  -76.0568098736     A.U. after   10 cycles
 E2 =    -0.2641460019D+00 EUMP2 =    -0.76320955875425D+02
 CCSD(T)
 CCSD(T)= -0.76334221887D+02

 The electronic state is 1-A1.
 Alpha  occ. eigenvalues --  -20.55325  -1.37112  -0.76883  -0.57073  -0.51144
 Alpha virt. eigenvalues --    0.03068   0.04719   0.13730   0.15362   0.17379
 Alpha virt. eigenvalues --    0.18000   0.23495   0.24527   0.26190   0.31615
 Alpha virt. eigenvalues --    0.32193   0.36507   0.44820   0.47229   0.61256

 Mulliken charges:
               1
     1  O   -0.346987
     2  H    0.173493
     3  H    0.173493
 Sum of Mulliken charges =  -0.00000

 Dipole moment (field-independent basis, Debye):
    X=             -0.0000    Y=             -0.0000    Z=             -1.7385  Tot=              1.7385
 Quadrupole moment (field-independent basis, Debye-Ang):
   XX=             -7.4640   YY=             -3.8863   ZZ=             -6.5421
   XY=              0.0000   XZ=              0.0000   YZ=             -0.0000

 .3265255\CCSD=-76.3260998\CCSD(T)=-76.3342219\RMSD=2.089e-09\PG=C02V [
 Normal termination of Gaussian 16 at Wed Feb  8 13:48:41 2023.
