 Gaussian 16, Revision C.01,
 Gaussian 16:  ES64L-G16RevC.01  3-Jul-2019

 ----------------------------------------
 #P CCSD(T)/aug-cc-pVTZ scf(maxcycle=200)
 ----------------------------------------

 --------------
 Gaussian input
 --------------
 Symbolic Z-matrix:
 Charge =  0 Multiplicity = 1

                         Standard orientation:
 ---------------------------------------------------------------------
 Center     Atomic      Atomic             Coordinates (Angstroms)
 Number     Number       Type             X           Y           Z
 ---------------------------------------------------------------------
      1          8           0        0.000000    0.136159    0.000000
      2          1           0        0.639004   -0.510336    0.000000
      3          1           0       -0.639004   -0.578933    0.000000
 ---------------------------------------------------------------------

 SCF Done:  E(RHF) =  -76.0478696744     A.U. after   10 cycles
 E2 =    -0.2685947186D+00 EUMP2 =    -0.76316464392983D+02
 CCSD(T)
 CCSD(T)= -0.76329585063D+02

 The electronic state is 1-A'.
 Alpha  occ. eigenvalues --  -20.56948  -1.38233  -0.69029  -0.62574  -0.51719
 Alpha virt. eigenvalues --    0.02829   0.04891   0.13265   0.16021   0.17795
 Alpha virt. eigenvalues --    0.18745   0.22443   0.24885   0.27187   0.28492
 Alpha virt. eigenvalues --    0.30243   0.37216   0.43563   0.47207   0.59027

 Mulliken charges:
               1
     1  O   -0.413487
     2  H    0.181948
     3  H    0.231540
 Sum of Mulliken charges =   0.00000

 Dipole moment (field-independent basis, Debye):
    X=              0.0313    Y=             -2.2327    Z=              0.0000  Tot=              2.2329
 Quadrupole moment (field-independent basis, Debye-Ang):
   XX=             -5.0671   YY=             -5.6848   ZZ=             -7.4830
   XY=              0.0830   XZ=              0.0000   YZ=              0.0000

 .3214759\CCSD=-76.3209971\CCSD(T)=-76.3295851\RMSD=2.652e-09\PG=CS [SG
 Normal termination of Gaussian 16 at Wed Feb  8 13:49:21 2023.
