 Gaussian 16, Revision C.01,
 Gaussian 16:  ES64L-G16RevC.01  3-Jul-2019

 ---------------------------------
 #P B3LYP/6-31g* scf(maxcycle=200)
 ---------------------------------

 --------------
 Gaussian input
 --------------
 Symbolic Z-matrix:
 Charge =  0 Multiplicity = 1

                         Standard orientation:
 ---------------------------------------------------------------------
 Center     Atomic      Atomic             Coordinates (Angstroms)
 Number     Number       Type             X           Y           Z
 ---------------------------------------------------------------------
      1          8           0        0.000000    0.131163   -0.000000
      2          1           0        0.733064   -0.562161    0.000000
      3          1           0       -0.733064   -0.487140   -0.000000
 ---------------------------------------------------------------------

 SCF Done:  E(RB3LYP) =  -76.4062757273     A.U. after   10 cycles

 The electronic state is 1-A'.
 Alpha  occ. eigenvalues --  -19.14440  -0.99841  -0.49895  -0.38619  -0.29266
 Alpha virt. eigenvalues --    0.05582   0.14114   0.74076   0.86308   0.88910
 Alpha virt. eigenvalues --    0.89924   1.05704   1.22029   1.71341   1.75460
 Alpha virt. eigenvalues --    1.77381   2.26635   2.53471   3.53122

 Mulliken charges:
               1
     1  O   -0.757235
     2  H    0.373064
     3  H    0.384170
 Sum of Mulliken charges =   0.00000

 Dipole moment (field-independent basis, Debye):
    X=             -0.0529    Y=             -2.2041    Z=              0.0000  Tot=              2.2047
 Quadrupole moment (field-independent basis, Debye-Ang):
   XX=             -4.6029   YY=             -5.8012   ZZ=             -7.2357
   XY=             -0.0927   XZ=             -0.0000   YZ=             -0.0000

 Normal termination of Gaussian 16 at Wed Feb  8 14:52:13 2023.
