 Gaussian 16, Revision C.01,
 Gaussian 16:  ES64L-G16RevC.01  3-Jul-2019

 ------------------------------
 #P HF/6-31g* scf(maxcycle=200)
 ------------------------------

 --------------
 Gaussian input
 --------------
 Symbolic Z-matrix:
 Charge =  0 Multiplicity = 1

                         Standard orientation:
 ---------------------------------------------------------------------
 Center     Atomic      Atomic             Coordinates (Angstroms)
 Number     Number       Type             X           Y           Z
 ---------------------------------------------------------------------
      1          8           0        0.000000    0.000000    0.100999
      2          1           0       -0.000000    0.815268   -0.403996
      3          1           0       -0.000000   -0.815268   -0.403996
 ---------------------------------------------------------------------

 SCF Done:  E(RHF) =  -76.0069731864     A.U. after   10 cycles

 The electronic state is 1-A1.
 Alpha  occ. eigenvalues --  -20.55320  -1.33090  -0.72587  -0.54630  -0.49249
 Alpha virt. eigenvalues --    0.21052   0.30471   1.07931   1.08623   1.16024
 Alpha virt. eigenvalues --    1.17153   1.39255   1.39825   2.02533   2.05521
 Alpha virt. eigenvalues --    2.08202   2.65715   2.91948   3.99014

 Mulliken charges:
               1
     1  O   -0.892067
     2  H    0.446034
     3  H    0.446034
 Sum of Mulliken charges =   0.00000

 Dipole moment (field-independent basis, Debye):
    X=             -0.0000    Y=             -0.0000    Z=             -2.0049  Tot=              2.0049
 Quadrupole moment (field-independent basis, Debye-Ang):
   XX=             -7.2312   YY=             -3.5792   ZZ=             -6.2934
   XY=              0.0000   XZ=              0.0000   YZ=              0.0000

 Normal termination of Gaussian 16 at Wed Feb  8 15:06:22 2023.
