 Gaussian 16, Revision C.01,
 Gaussian 16:  ES64L-G16RevC.01  3-Jul-2019

 ---------------------------------
 #P B3LYP/6-31g* scf(maxcycle=200)
 ---------------------------------

 --------------
 Gaussian input
 --------------
 Symbolic Z-matrix:
 Charge =  0 Multiplicity = 1

                         Standard orientation:
 ---------------------------------------------------------------------
 Center     Atomic      Atomic             Coordinates (Angstroms)
 Number     Number       Type             X           Y           Z
 ---------------------------------------------------------------------
      1          8           0        0.000000    0.000000    0.106281
      2          1           0       -0.000000    0.737489   -0.425124
      3          1           0       -0.000000   -0.737489   -0.425124
 ---------------------------------------------------------------------

 SCF Done:  E(RB3LYP) =  -76.4014747730     A.U. after    9 cycles

 The electronic state is 1-A1.
 Alpha  occ. eigenvalues --  -19.12535  -1.02098  -0.54944  -0.36688  -0.29450
 Alpha virt. eigenvalues --    0.07937   0.16911   0.82228   0.88697   0.89134
 Alpha virt. eigenvalues --    0.91685   1.08724   1.19027   1.72834   1.73071
 Alpha virt. eigenvalues --    1.77609   2.35954   2.68504   3.59251

 Mulliken charges:
               1
     1  O   -0.789150
     2  H    0.394575
     3  H    0.394575
 Sum of Mulliken charges =  -0.00000

 Dipole moment (field-independent basis, Debye):
    X=             -0.0000    Y=              0.0000    Z=             -1.9932  Tot=              1.9932
 Quadrupole moment (field-independent basis, Debye-Ang):
   XX=             -7.0819   YY=             -4.1730   ZZ=             -6.0735
   XY=              0.0000   XZ=              0.0000   YZ=             -0.0000

 Normal termination of Gaussian 16 at Wed Feb  8 14:49:48 2023.
