 Gaussian 16, Revision C.01,
 Gaussian 16:  ES64L-G16RevC.01  3-Jul-2019

 ----------------------------------------
 #P CCSD(T)/aug-cc-pVTZ scf(maxcycle=200)
 ----------------------------------------

 --------------
 Gaussian input
 --------------
 Symbolic Z-matrix:
 Charge =  0 Multiplicity = 1

                         Standard orientation:
 ---------------------------------------------------------------------
 Center     Atomic      Atomic             Coordinates (Angstroms)
 Number     Number       Type             X           Y           Z
 ---------------------------------------------------------------------
      1          8           0        0.000000   -0.000000    0.129106
      2          1           0       -0.000000    0.775480   -0.516426
      3          1           0       -0.000000   -0.775480   -0.516426
 ---------------------------------------------------------------------

 SCF Done:  E(RHF) =  -76.0521902914     A.U. after   10 cycles
 E2 =    -0.2729554402D+00 EUMP2 =    -0.76325145731599D+02
 CCSD(T)
 CCSD(T)= -0.76338513492D+02

 The electronic state is 1-A1.
 Alpha  occ. eigenvalues --  -20.57789  -1.33118  -0.68313  -0.58275  -0.50768
 Alpha virt. eigenvalues --    0.02846   0.04773   0.13494   0.16159   0.17419
 Alpha virt. eigenvalues --    0.18384   0.22106   0.24336   0.26659   0.29406
 Alpha virt. eigenvalues --    0.30637   0.36447   0.42750   0.45518   0.59473

 Mulliken charges:
               1
     1  O   -0.507573
     2  H    0.253786
     3  H    0.253786
 Sum of Mulliken charges =   0.00000

 Dipole moment (field-independent basis, Debye):
    X=             -0.0000    Y=             -0.0000    Z=             -2.0916  Tot=              2.0916
 Quadrupole moment (field-independent basis, Debye-Ang):
   XX=             -7.6682   YY=             -4.3196   ZZ=             -6.1375
   XY=              0.0000   XZ=              0.0000   YZ=              0.0000

 .3298578\CCSD=-76.3293162\CCSD(T)=-76.3385135\RMSD=6.194e-09\PG=C02V [
 Normal termination of Gaussian 16 at Wed Feb  8 13:57:41 2023.
