 Gaussian 16, Revision C.01,
 Gaussian 16:  ES64L-G16RevC.01  3-Jul-2019

 ----------------------------------------
 #P CCSD(T)/aug-cc-pVTZ scf(maxcycle=200)
 ----------------------------------------

 --------------
 Gaussian input
 --------------
 Symbolic Z-matrix:
 Charge =  0 Multiplicity = 1

                         Standard orientation:
 ---------------------------------------------------------------------
 Center     Atomic      Atomic             Coordinates (Angstroms)
 Number     Number       Type             X           Y           Z
 ---------------------------------------------------------------------
      1          8           0        0.000000   -0.000000    0.130279
      2          1           0        0.000000    0.634007   -0.521116
      3          1           0       -0.000000   -0.634007   -0.521116
 ---------------------------------------------------------------------

 SCF Done:  E(RHF) =  -76.0481756584     A.U. after    9 cycles
 E2 =    -0.2662782748D+00 EUMP2 =    -0.76314453933272D+02
 CCSD(T)
 CCSD(T)= -0.76327604852D+02

 The electronic state is 1-A1.
 Alpha  occ. eigenvalues --  -20.56399  -1.39492  -0.70727  -0.62724  -0.51877
 Alpha virt. eigenvalues --    0.02878   0.04883   0.13323   0.15882   0.17850
 Alpha virt. eigenvalues --    0.18655   0.22751   0.24992   0.27132   0.28802
 Alpha virt. eigenvalues --    0.30367   0.37301   0.44254   0.47634   0.59294

 Mulliken charges:
               1
     1  O   -0.370781
     2  H    0.185391
     3  H    0.185391
 Sum of Mulliken charges =   0.00000

 Dipole moment (field-independent basis, Debye):
    X=             -0.0000    Y=             -0.0000    Z=             -2.1792  Tot=              2.1792
 Quadrupole moment (field-independent basis, Debye-Ang):
   XX=             -7.4270   YY=             -5.0006   ZZ=             -5.7486
   XY=              0.0000   XZ=              0.0000   YZ=              0.0000

 319747\CCSD=-76.3192998\CCSD(T)=-76.3276049\RMSD=7.766e-09\PG=C02V [C2
 Normal termination of Gaussian 16 at Wed Feb  8 13:48:40 2023.
