 Gaussian 16, Revision C.01,
 Gaussian 16:  ES64L-G16RevC.01  3-Jul-2019

 ----------------------------------------
 #P PBE1PBE/aug-cc-pVDZ scf(maxcycle=200)
 ----------------------------------------

 --------------
 Gaussian input
 --------------
 Symbolic Z-matrix:
 Charge =  0 Multiplicity = 1

                         Standard orientation:
 ---------------------------------------------------------------------
 Center     Atomic      Atomic             Coordinates (Angstroms)
 Number     Number       Type             X           Y           Z
 ---------------------------------------------------------------------
      1          8           0       -0.000000    0.000000    0.132472
      2          1           0        0.000000    0.622542   -0.529889
      3          1           0       -0.000000   -0.622542   -0.529889
 ---------------------------------------------------------------------

 SCF Done:  E(RPBE1PBE) =  -76.3425840198     A.U. after    7 cycles

 The electronic state is 1-A1.
 Alpha  occ. eigenvalues --  -19.22823  -1.08905  -0.53210  -0.45128  -0.34103
 Alpha virt. eigenvalues --   -0.01153   0.03647   0.11040   0.13232   0.15158
 Alpha virt. eigenvalues --    0.17814   0.19164   0.27160   0.28469   0.30666
 Alpha virt. eigenvalues --    0.31770   0.47843   0.52281   0.55747   0.62091

 Mulliken charges:
               1
     1  O   -0.116554
     2  H    0.058277
     3  H    0.058277
 Sum of Mulliken charges =   0.00000

 Dipole moment (field-independent basis, Debye):
    X=             -0.0000    Y=             -0.0000    Z=             -2.0763  Tot=              2.0763
 Quadrupole moment (field-independent basis, Debye-Ang):
   XX=             -7.5903   YY=             -5.2599   ZZ=             -5.8999
   XY=              0.0000   XZ=              0.0000   YZ=             -0.0000

 Normal termination of Gaussian 16 at Mon Mar 20 17:56:54 2023.
