 Gaussian 16, Revision C.01,
 Gaussian 16:  ES64L-G16RevC.01  3-Jul-2019

 ----------------------------------------
 #P CCSD(T)/aug-cc-pVTZ scf(maxcycle=200)
 ----------------------------------------

 --------------
 Gaussian input
 --------------
 Symbolic Z-matrix:
 Charge =  0 Multiplicity = 1

                         Standard orientation:
 ---------------------------------------------------------------------
 Center     Atomic      Atomic             Coordinates (Angstroms)
 Number     Number       Type             X           Y           Z
 ---------------------------------------------------------------------
      1          8           0        0.000000    0.131616    0.000000
      2          1           0        0.662310   -0.490981    0.000000
      3          1           0       -0.662310   -0.561945    0.000000
 ---------------------------------------------------------------------

 SCF Done:  E(RHF) =  -76.0522101328     A.U. after   10 cycles
 E2 =    -0.2680033192D+00 EUMP2 =    -0.76320213451993D+02
 CCSD(T)
 CCSD(T)= -0.76333408258D+02

 The electronic state is 1-A'.
 Alpha  occ. eigenvalues --  -20.56816  -1.37846  -0.69991  -0.61752  -0.51618
 Alpha virt. eigenvalues --    0.02864   0.04866   0.13350   0.15961   0.17767
 Alpha virt. eigenvalues --    0.18644   0.22555   0.24825   0.27053   0.28838
 Alpha virt. eigenvalues --    0.30398   0.37077   0.43780   0.47216   0.59256

 Mulliken charges:
               1
     1  O   -0.408077
     2  H    0.178897
     3  H    0.229180
 Sum of Mulliken charges =   0.00000

 Dipole moment (field-independent basis, Debye):
    X=              0.0297    Y=             -2.1766    Z=              0.0000  Tot=              2.1768
 Quadrupole moment (field-independent basis, Debye-Ang):
   XX=             -4.8970   YY=             -5.8039   ZZ=             -7.4862
   XY=              0.0927   XZ=              0.0000   YZ=              0.0000

 .3253478\CCSD=-76.3248778\CCSD(T)=-76.3334083\RMSD=2.799e-09\PG=CS [SG
 Normal termination of Gaussian 16 at Wed Feb  8 13:49:08 2023.
