 Gaussian 16, Revision C.01,
 Gaussian 16:  ES64L-G16RevC.01  3-Jul-2019

 ------------------------------------
 #P wB97XD/6-311g** scf(maxcycle=200)
 ------------------------------------

 --------------
 Gaussian input
 --------------
 Symbolic Z-matrix:
 Charge =  0 Multiplicity = 1

                         Standard orientation:
 ---------------------------------------------------------------------
 Center     Atomic      Atomic             Coordinates (Angstroms)
 Number     Number       Type             X           Y           Z
 ---------------------------------------------------------------------
      1          8           0        0.000000   -0.000000    0.117973
      2          1           0       -0.000000    0.818621   -0.471892
      3          1           0       -0.000000   -0.818621   -0.471892
 ---------------------------------------------------------------------

 SCF Done:  E(RwB97XD) =  -76.4177895027     A.U. after   11 cycles

 The electronic state is 1-A1.
 Alpha  occ. eigenvalues --  -19.23171  -1.07930  -0.59762  -0.45072  -0.38128
 Alpha virt. eigenvalues --    0.10845   0.18131   0.44977   0.46917   0.85303
 Alpha virt. eigenvalues --    0.85614   0.94314   1.15866   1.33131   1.41112
 Alpha virt. eigenvalues --    1.55740   1.67499   1.97513   2.07711   2.40471

 Mulliken charges:
               1
     1  O   -0.509565
     2  H    0.254783
     3  H    0.254783
 Sum of Mulliken charges =  -0.00000

 Dipole moment (field-independent basis, Debye):
    X=             -0.0000    Y=              0.0000    Z=             -2.0625  Tot=              2.0625
 Quadrupole moment (field-independent basis, Debye-Ang):
   XX=             -7.2848   YY=             -3.9364   ZZ=             -6.1603
   XY=              0.0000   XZ=              0.0000   YZ=             -0.0000

 Normal termination of Gaussian 16 at Wed Feb  8 14:43:06 2023.
