 Gaussian 16, Revision C.01,
 Gaussian 16:  ES64L-G16RevC.01  3-Jul-2019

 ----------------------------------------
 #P CCSD(T)/aug-cc-pVDZ scf(maxcycle=200)
 ----------------------------------------

 --------------
 Gaussian input
 --------------
 Symbolic Z-matrix:
 Charge =  0 Multiplicity = 1

                         Standard orientation:
 ---------------------------------------------------------------------
 Center     Atomic      Atomic             Coordinates (Angstroms)
 Number     Number       Type             X           Y           Z
 ---------------------------------------------------------------------
      1          8           0        0.000000    0.000000    0.120812
      2          1           0        0.000000    0.808202   -0.483250
      3          1           0       -0.000000   -0.808202   -0.483250
 ---------------------------------------------------------------------

 SCF Done:  E(RHF) =  -76.0335537716     A.U. after   10 cycles
 E2 =    -0.2238253943D+00 EUMP2 =    -0.76257379165954D+02
 CCSD(T)
 CCSD(T)= -0.76270500419D+02

 The electronic state is 1-A1.
 Alpha  occ. eigenvalues --  -20.58467  -1.33025  -0.69525  -0.57197  -0.50484
 Alpha virt. eigenvalues --    0.03460   0.05745   0.17526   0.19898   0.21757
 Alpha virt. eigenvalues --    0.23227   0.27732   0.32212   0.38076   0.40039
 Alpha virt. eigenvalues --    0.42908   0.52945   0.63435   0.65236   0.79671

 Mulliken charges:
               1
     1  O   -0.413068
     2  H    0.206534
     3  H    0.206534
 Sum of Mulliken charges =  -0.00000

 Dipole moment (field-independent basis, Debye):
    X=             -0.0000    Y=             -0.0000    Z=             -2.0053  Tot=              2.0053
 Quadrupole moment (field-independent basis, Debye-Ang):
   XX=             -7.7143   YY=             -4.0591   ZZ=             -6.3523
   XY=              0.0000   XZ=              0.0000   YZ=              0.0000

 .2651165\CCSD=-76.2649034\CCSD(T)=-76.2705004\RMSD=8.224e-09\PG=C02V [
 Normal termination of Gaussian 16 at Wed Feb  8 14:51:10 2023.
