 Gaussian 16, Revision C.01,
 Gaussian 16:  ES64L-G16RevC.01  3-Jul-2019

 ---------------------------------
 #P B3LYP/6-31g* scf(maxcycle=200)
 ---------------------------------

 --------------
 Gaussian input
 --------------
 Symbolic Z-matrix:
 Charge =  0 Multiplicity = 1

                         Standard orientation:
 ---------------------------------------------------------------------
 Center     Atomic      Atomic             Coordinates (Angstroms)
 Number     Number       Type             X           Y           Z
 ---------------------------------------------------------------------
      1          8           0        0.000000    0.139927    0.000000
      2          1           0        0.654215   -0.628242    0.000000
      3          1           0       -0.654215   -0.491170   -0.000000
 ---------------------------------------------------------------------

 SCF Done:  E(RB3LYP) =  -76.3946740656     A.U. after   10 cycles

 The electronic state is 1-A'.
 Alpha  occ. eigenvalues --  -19.14411  -1.02187  -0.48730  -0.40881  -0.29763
 Alpha virt. eigenvalues --    0.05450   0.15065   0.72358   0.87596   0.88689
 Alpha virt. eigenvalues --    0.92981   1.06408   1.25339   1.69444   1.75245
 Alpha virt. eigenvalues --    1.76255   2.32528   2.54774   3.52243

 Mulliken charges:
               1
     1  O   -0.745668
     2  H    0.361383
     3  H    0.384285
 Sum of Mulliken charges =   0.00000

 Dipole moment (field-independent basis, Debye):
    X=             -0.1112    Y=             -2.3275    Z=             -0.0000  Tot=              2.3301
 Quadrupole moment (field-independent basis, Debye-Ang):
   XX=             -5.0761   YY=             -5.5266   ZZ=             -7.1894
   XY=             -0.1307   XZ=             -0.0000   YZ=             -0.0000

 Normal termination of Gaussian 16 at Wed Feb  8 14:51:46 2023.
