 Gaussian 16, Revision C.01,
 Gaussian 16:  ES64L-G16RevC.01  3-Jul-2019

 ---------------------------------
 #P B3LYP/6-31g* scf(maxcycle=200)
 ---------------------------------

 --------------
 Gaussian input
 --------------
 Symbolic Z-matrix:
 Charge =  0 Multiplicity = 1

                         Standard orientation:
 ---------------------------------------------------------------------
 Center     Atomic      Atomic             Coordinates (Angstroms)
 Number     Number       Type             X           Y           Z
 ---------------------------------------------------------------------
      1          8           0       -0.000000    0.138657   -0.000000
      2          1           0        0.697840   -0.590109   -0.000000
      3          1           0       -0.697840   -0.519143    0.000000
 ---------------------------------------------------------------------

 SCF Done:  E(RB3LYP) =  -76.4029096396     A.U. after   10 cycles

 The electronic state is 1-A'.
 Alpha  occ. eigenvalues --  -19.14720  -1.00424  -0.48749  -0.39885  -0.29461
 Alpha virt. eigenvalues --    0.05329   0.13978   0.72674   0.86496   0.88770
 Alpha virt. eigenvalues --    0.90446   1.05296   1.24202   1.70345   1.75869
 Alpha virt. eigenvalues --    1.76712   2.29022   2.50477   3.51869

 Mulliken charges:
               1
     1  O   -0.747267
     2  H    0.367439
     3  H    0.379828
 Sum of Mulliken charges =   0.00000

 Dipole moment (field-independent basis, Debye):
    X=             -0.0555    Y=             -2.2856    Z=              0.0000  Tot=              2.2863
 Quadrupole moment (field-independent basis, Debye-Ang):
   XX=             -4.8810   YY=             -5.6419   ZZ=             -7.2380
   XY=             -0.0758   XZ=              0.0000   YZ=              0.0000

 Normal termination of Gaussian 16 at Wed Feb  8 14:52:04 2023.
