 Gaussian 16, Revision C.01,
 Gaussian 16:  ES64L-G16RevC.01  3-Jul-2019

 ----------------------------------------
 #P PBE1PBE/aug-cc-pVDZ scf(maxcycle=200)
 ----------------------------------------

 --------------
 Gaussian input
 --------------
 Symbolic Z-matrix:
 Charge =  0 Multiplicity = 1

                         Standard orientation:
 ---------------------------------------------------------------------
 Center     Atomic      Atomic             Coordinates (Angstroms)
 Number     Number       Type             X           Y           Z
 ---------------------------------------------------------------------
      1          8           0        0.000000    0.000000    0.092327
      2          1           0       -0.000000    0.840580   -0.369308
      3          1           0       -0.000000   -0.840580   -0.369308
 ---------------------------------------------------------------------

 SCF Done:  E(RPBE1PBE) =  -76.3531526915     A.U. after    8 cycles

 The electronic state is 1-A1.
 Alpha  occ. eigenvalues --  -19.22302  -1.03670  -0.58093  -0.37878  -0.32949
 Alpha virt. eigenvalues --   -0.01099   0.03098   0.11405   0.13024   0.13513
 Alpha virt. eigenvalues --    0.16143   0.20628   0.21655   0.28177   0.34113
 Alpha virt. eigenvalues --    0.36221   0.43234   0.51917   0.53476   0.68495

 Mulliken charges:
               1
     1  O   -0.275763
     2  H    0.137882
     3  H    0.137882
 Sum of Mulliken charges =  -0.00000

 Dipole moment (field-independent basis, Debye):
    X=             -0.0000    Y=             -0.0000    Z=             -1.5702  Tot=              1.5702
 Quadrupole moment (field-independent basis, Debye-Ang):
   XX=             -7.7918   YY=             -3.7396   ZZ=             -6.9572
   XY=              0.0000   XZ=              0.0000   YZ=              0.0000

 Normal termination of Gaussian 16 at Wed Mar 29 21:52:11 2023.
