 Gaussian 16, Revision C.01,
 Gaussian 16:  ES64L-G16RevC.01  3-Jul-2019

 ---------------------------------
 #P B3LYP/6-31g* scf(maxcycle=200)
 ---------------------------------

 --------------
 Gaussian input
 --------------
 Symbolic Z-matrix:
 Charge =  0 Multiplicity = 1

                         Standard orientation:
 ---------------------------------------------------------------------
 Center     Atomic      Atomic             Coordinates (Angstroms)
 Number     Number       Type             X           Y           Z
 ---------------------------------------------------------------------
      1          8           0       -0.000000   -0.000000    0.093021
      2          1           0        0.000000    0.780998   -0.372085
      3          1           0       -0.000000   -0.780998   -0.372085
 ---------------------------------------------------------------------

 SCF Done:  E(RB3LYP) =  -76.3978594448     A.U. after    9 cycles

 The electronic state is 1-A1.
 Alpha  occ. eigenvalues --  -19.12006  -1.01179  -0.56573  -0.34720  -0.29124
 Alpha virt. eigenvalues --    0.08010   0.17021   0.85322   0.87769   0.89154
 Alpha virt. eigenvalues --    0.89359   1.09549   1.17326   1.71978   1.76162
 Alpha virt. eigenvalues --    1.78821   2.40001   2.64670   3.60999

 Mulliken charges:
               1
     1  O   -0.805989
     2  H    0.402994
     3  H    0.402994
 Sum of Mulliken charges =   0.00000

 Dipole moment (field-independent basis, Debye):
    X=             -0.0000    Y=             -0.0000    Z=             -1.8187  Tot=              1.8187
 Quadrupole moment (field-independent basis, Debye-Ang):
   XX=             -7.0794   YY=             -3.7791   ZZ=             -6.2985
   XY=              0.0000   XZ=              0.0000   YZ=              0.0000

 Normal termination of Gaussian 16 at Wed Feb  8 14:49:48 2023.
