 Gaussian 16, Revision C.01,
 Gaussian 16:  ES64L-G16RevC.01  3-Jul-2019

 ------------------------------
 #P HF/6-31g* scf(maxcycle=200)
 ------------------------------

 --------------
 Gaussian input
 --------------
 Symbolic Z-matrix:
 Charge =  0 Multiplicity = 1

                         Standard orientation:
 ---------------------------------------------------------------------
 Center     Atomic      Atomic             Coordinates (Angstroms)
 Number     Number       Type             X           Y           Z
 ---------------------------------------------------------------------
      1          8           0       -0.000000   -0.000000    0.106265
      2          1           0       -0.000000    0.857774   -0.425059
      3          1           0       -0.000000   -0.857774   -0.425059
 ---------------------------------------------------------------------

 SCF Done:  E(RHF) =  -75.9992192821     A.U. after   10 cycles

 The electronic state is 1-A1.
 Alpha  occ. eigenvalues --  -20.56204  -1.30741  -0.69711  -0.53768  -0.48891
 Alpha virt. eigenvalues --    0.19725   0.29225   1.03417   1.05759   1.15703
 Alpha virt. eigenvalues --    1.17209   1.38430   1.38771   2.03862   2.06517
 Alpha virt. eigenvalues --    2.08988   2.59580   2.83409   3.96215

 Mulliken charges:
               1
     1  O   -0.885302
     2  H    0.442651
     3  H    0.442651
 Sum of Mulliken charges =  -0.00000

 Dipole moment (field-independent basis, Debye):
    X=             -0.0000    Y=              0.0000    Z=             -2.0425  Tot=              2.0425
 Quadrupole moment (field-independent basis, Debye-Ang):
   XX=             -7.3341   YY=             -3.4274   ZZ=             -6.3280
   XY=              0.0000   XZ=              0.0000   YZ=             -0.0000

 Normal termination of Gaussian 16 at Wed Feb  8 15:07:44 2023.
