 Gaussian 16, Revision C.01,
 Gaussian 16:  ES64L-G16RevC.01  3-Jul-2019

 ------------------------------
 #P HF/6-31g* scf(maxcycle=200)
 ------------------------------

 --------------
 Gaussian input
 --------------
 Symbolic Z-matrix:
 Charge =  0 Multiplicity = 1

                         Standard orientation:
 ---------------------------------------------------------------------
 Center     Atomic      Atomic             Coordinates (Angstroms)
 Number     Number       Type             X           Y           Z
 ---------------------------------------------------------------------
      1          8           0       -0.000000    0.000000    0.134625
      2          1           0       -0.000000    0.610888   -0.538500
      3          1           0       -0.000000   -0.610888   -0.538500
 ---------------------------------------------------------------------

 SCF Done:  E(RHF) =  -75.9909656559     A.U. after   10 cycles

 The electronic state is 1-A1.
 Alpha  occ. eigenvalues --  -20.55957  -1.39067  -0.68693  -0.62323  -0.50846
 Alpha virt. eigenvalues --    0.21120   0.31721   0.98113   1.12442   1.16310
 Alpha virt. eigenvalues --    1.28604   1.38807   1.49832   1.97361   2.03407
 Alpha virt. eigenvalues --    2.04124   2.78359   2.92341   3.94943

 Mulliken charges:
               1
     1  O   -0.834185
     2  H    0.417093
     3  H    0.417093
 Sum of Mulliken charges =   0.00000

 Dipole moment (field-independent basis, Debye):
    X=             -0.0000    Y=             -0.0000    Z=             -2.4982  Tot=              2.4982
 Quadrupole moment (field-independent basis, Debye-Ang):
   XX=             -7.1320   YY=             -5.0836   ZZ=             -5.4322
   XY=              0.0000   XZ=              0.0000   YZ=              0.0000

 Normal termination of Gaussian 16 at Wed Feb  8 15:04:42 2023.
