 Gaussian 16, Revision C.01,
 Gaussian 16:  ES64L-G16RevC.01  3-Jul-2019

 ------------------------------------
 #P wB97XD/6-311g** scf(maxcycle=200)
 ------------------------------------

 --------------
 Gaussian input
 --------------
 Symbolic Z-matrix:
 Charge =  0 Multiplicity = 1

                         Standard orientation:
 ---------------------------------------------------------------------
 Center     Atomic      Atomic             Coordinates (Angstroms)
 Number     Number       Type             X           Y           Z
 ---------------------------------------------------------------------
      1          8           0        0.000000    0.136159    0.000000
      2          1           0        0.639004   -0.510336    0.000000
      3          1           0       -0.639004   -0.578933    0.000000
 ---------------------------------------------------------------------

 SCF Done:  E(RwB97XD) =  -76.4112985184     A.U. after   12 cycles

 The electronic state is 1-A'.
 Alpha  occ. eigenvalues --  -19.22982  -1.13207  -0.58257  -0.50211  -0.39349
 Alpha virt. eigenvalues --    0.11681   0.19864   0.45326   0.55169   0.85211
 Alpha virt. eigenvalues --    0.85683   0.96439   1.13279   1.17938   1.42682
 Alpha virt. eigenvalues --    1.44164   1.89686   1.98538   2.21329   2.43906

 Mulliken charges:
               1
     1  O   -0.426197
     2  H    0.214455
     3  H    0.211741
 Sum of Mulliken charges =  -0.00000

 Dipole moment (field-independent basis, Debye):
    X=              0.0475    Y=             -2.2862    Z=              0.0000  Tot=              2.2867
 Quadrupole moment (field-independent basis, Debye-Ang):
   XX=             -5.0159   YY=             -5.5481   ZZ=             -7.1025
   XY=              0.0732   XZ=              0.0000   YZ=              0.0000

 Normal termination of Gaussian 16 at Wed Feb  8 14:40:19 2023.
