 Gaussian 16, Revision C.01,
 Gaussian 16:  ES64L-G16RevC.01  3-Jul-2019

 ----------------------------------------
 #P CCSD(T)/aug-cc-pVTZ scf(maxcycle=200)
 ----------------------------------------

 --------------
 Gaussian input
 --------------
 Symbolic Z-matrix:
 Charge =  0 Multiplicity = 1

                         Standard orientation:
 ---------------------------------------------------------------------
 Center     Atomic      Atomic             Coordinates (Angstroms)
 Number     Number       Type             X           Y           Z
 ---------------------------------------------------------------------
      1          8           0        0.000000    0.130462    0.000000
      2          1           0        0.700906   -0.448340    0.000000
      3          1           0       -0.700906   -0.595356    0.000000
 ---------------------------------------------------------------------

 SCF Done:  E(RHF) =  -76.0520768523     A.U. after   10 cycles
 E2 =    -0.2694709754D+00 EUMP2 =    -0.76321547827651D+02
 CCSD(T)
 CCSD(T)= -0.76334862317D+02

 The electronic state is 1-A'.
 Alpha  occ. eigenvalues --  -20.57108  -1.36279  -0.69747  -0.60326  -0.51329
 Alpha virt. eigenvalues --    0.02858   0.04835   0.13397   0.16000   0.17588
 Alpha virt. eigenvalues --    0.18587   0.22398   0.24642   0.26904   0.29096
 Alpha virt. eigenvalues --    0.30498   0.36809   0.43117   0.46999   0.59352

 Mulliken charges:
               1
     1  O   -0.433932
     2  H    0.173866
     3  H    0.260066
 Sum of Mulliken charges =  -0.00000

 Dipole moment (field-independent basis, Debye):
    X=              0.0556    Y=             -2.1426    Z=              0.0000  Tot=              2.1434
 Quadrupole moment (field-independent basis, Debye-Ang):
   XX=             -4.7016   YY=             -5.9100   ZZ=             -7.5458
   XY=              0.2096   XZ=              0.0000   YZ=              0.0000

 266107\CCSD=-76.3261247\CCSD(T)=-76.3348623\RMSD=3.954e-09\PG=CS [SG(H
 Normal termination of Gaussian 16 at Wed Feb  8 13:50:12 2023.
