 Gaussian 16, Revision C.01,
 Gaussian 16:  ES64L-G16RevC.01  3-Jul-2019

 ---------------------------------
 #P B3LYP/6-31g* scf(maxcycle=200)
 ---------------------------------

 --------------
 Gaussian input
 --------------
 Symbolic Z-matrix:
 Charge =  0 Multiplicity = 1

                         Standard orientation:
 ---------------------------------------------------------------------
 Center     Atomic      Atomic             Coordinates (Angstroms)
 Number     Number       Type             X           Y           Z
 ---------------------------------------------------------------------
      1          8           0       -0.000000    0.000000    0.131794
      2          1           0       -0.000000    0.764096   -0.527174
      3          1           0       -0.000000   -0.764096   -0.527174
 ---------------------------------------------------------------------

 SCF Done:  E(RB3LYP) =  -76.4059551034     A.U. after   10 cycles

 The electronic state is 1-A1.
 Alpha  occ. eigenvalues --  -19.14781  -0.98580  -0.49405  -0.38050  -0.29041
 Alpha virt. eigenvalues --    0.05048   0.13142   0.73972   0.83422   0.88963
 Alpha virt. eigenvalues --    0.89387   1.05231   1.20899   1.72424   1.75843
 Alpha virt. eigenvalues --    1.77974   2.23712   2.49523   3.52290

 Mulliken charges:
               1
     1  O   -0.752729
     2  H    0.376364
     3  H    0.376364
 Sum of Mulliken charges =  -0.00000

 Dipole moment (field-independent basis, Debye):
    X=             -0.0000    Y=             -0.0000    Z=             -2.1809  Tot=              2.1809
 Quadrupole moment (field-independent basis, Debye-Ang):
   XX=             -7.2833   YY=             -4.4822   ZZ=             -5.8637
   XY=              0.0000   XZ=              0.0000   YZ=              0.0000

 Normal termination of Gaussian 16 at Wed Feb  8 14:52:34 2023.
