 Gaussian 16, Revision C.01,
 Gaussian 16:  ES64L-G16RevC.01  3-Jul-2019

 ----------------------------------------
 #P CCSD(T)/aug-cc-pVTZ scf(maxcycle=200)
 ----------------------------------------

 --------------
 Gaussian input
 --------------
 Symbolic Z-matrix:
 Charge =  0 Multiplicity = 1

                         Standard orientation:
 ---------------------------------------------------------------------
 Center     Atomic      Atomic             Coordinates (Angstroms)
 Number     Number       Type             X           Y           Z
 ---------------------------------------------------------------------
      1          8           0        0.000000    0.133701    0.000000
      2          1           0        0.721544   -0.498007    0.000000
      3          1           0       -0.721544   -0.571604    0.000000
 ---------------------------------------------------------------------

 SCF Done:  E(RHF) =  -76.0535704720     A.U. after   10 cycles
 E2 =    -0.2715749916D+00 EUMP2 =    -0.76325145463573D+02
 CCSD(T)
 CCSD(T)= -0.76338423022D+02

 The electronic state is 1-A'.
 Alpha  occ. eigenvalues --  -20.57599  -1.34800  -0.68406  -0.59913  -0.51125
 Alpha virt. eigenvalues --    0.02834   0.04824   0.13400   0.16127   0.17587
 Alpha virt. eigenvalues --    0.18565   0.22154   0.24522   0.26900   0.28941
 Alpha virt. eigenvalues --    0.30438   0.36669   0.42986   0.46128   0.59232

 Mulliken charges:
               1
     1  O   -0.475891
     2  H    0.220154
     3  H    0.255737
 Sum of Mulliken charges =  -0.00000

 Dipole moment (field-independent basis, Debye):
    X=              0.0280    Y=             -2.1651    Z=              0.0000  Tot=              2.1653
 Quadrupole moment (field-independent basis, Debye-Ang):
   XX=             -4.6548   YY=             -5.9313   ZZ=             -7.6038
   XY=              0.1068   XZ=              0.0000   YZ=              0.0000

 3299456\CCSD=-76.3294249\CCSD(T)=-76.338423\RMSD=4.626e-09\PG=CS [SG(H
 Normal termination of Gaussian 16 at Wed Feb  8 13:54:05 2023.
