 Gaussian 16, Revision C.01,
 Gaussian 16:  ES64L-G16RevC.01  3-Jul-2019

 ----------------------------------------
 #P PBE1PBE/aug-cc-pVDZ scf(maxcycle=200)
 ----------------------------------------

 --------------
 Gaussian input
 --------------
 Symbolic Z-matrix:
 Charge =  0 Multiplicity = 1

                         Standard orientation:
 ---------------------------------------------------------------------
 Center     Atomic      Atomic             Coordinates (Angstroms)
 Number     Number       Type             X           Y           Z
 ---------------------------------------------------------------------
      1          8           0        0.000000   -0.000000    0.117973
      2          1           0       -0.000000    0.818621   -0.471892
      3          1           0       -0.000000   -0.818621   -0.471892
 ---------------------------------------------------------------------

 SCF Done:  E(RPBE1PBE) =  -76.3553183626     A.U. after    8 cycles

 The electronic state is 1-A1.
 Alpha  occ. eigenvalues --  -19.23626  -1.02485  -0.53926  -0.39925  -0.32825
 Alpha virt. eigenvalues --   -0.01614   0.02974   0.10986   0.13259   0.13676
 Alpha virt. eigenvalues --    0.15366   0.18788   0.22736   0.28449   0.30507
 Alpha virt. eigenvalues --    0.33294   0.44016   0.50209   0.52201   0.64178

 Mulliken charges:
               1
     1  O   -0.336494
     2  H    0.168247
     3  H    0.168247
 Sum of Mulliken charges =   0.00000

 Dipole moment (field-independent basis, Debye):
    X=             -0.0000    Y=              0.0000    Z=             -1.8276  Tot=              1.8276
 Quadrupole moment (field-independent basis, Debye-Ang):
   XX=             -7.8783   YY=             -4.1838   ZZ=             -6.5870
   XY=              0.0000   XZ=              0.0000   YZ=             -0.0000

 Normal termination of Gaussian 16 at Wed Mar 29 21:53:54 2023.
