 Gaussian 16, Revision C.01,
 Gaussian 16:  ES64L-G16RevC.01  3-Jul-2019

 ---------------------------------
 #P B3LYP/6-31g* scf(maxcycle=200)
 ---------------------------------

 --------------
 Gaussian input
 --------------
 Symbolic Z-matrix:
 Charge =  0 Multiplicity = 1

                         Standard orientation:
 ---------------------------------------------------------------------
 Center     Atomic      Atomic             Coordinates (Angstroms)
 Number     Number       Type             X           Y           Z
 ---------------------------------------------------------------------
      1          8           0       -0.000000   -0.000000    0.130255
      2          1           0        0.000000    0.703931   -0.521022
      3          1           0       -0.000000   -0.703931   -0.521022
 ---------------------------------------------------------------------

 SCF Done:  E(RB3LYP) =  -76.4061683231     A.U. after    9 cycles

 The electronic state is 1-A1.
 Alpha  occ. eigenvalues --  -19.14100  -1.01100  -0.50374  -0.39203  -0.29492
 Alpha virt. eigenvalues --    0.06249   0.14963   0.74676   0.87504   0.88857
 Alpha virt. eigenvalues --    0.91705   1.06142   1.23035   1.70281   1.75161
 Alpha virt. eigenvalues --    1.76705   2.30975   2.56037   3.53850

 Mulliken charges:
               1
     1  O   -0.761046
     2  H    0.380523
     3  H    0.380523
 Sum of Mulliken charges =  -0.00000

 Dipole moment (field-independent basis, Debye):
    X=             -0.0000    Y=              0.0000    Z=             -2.2264  Tot=              2.2264
 Quadrupole moment (field-independent basis, Debye-Ang):
   XX=             -7.1883   YY=             -4.7108   ZZ=             -5.7501
   XY=              0.0000   XZ=              0.0000   YZ=              0.0000

 Normal termination of Gaussian 16 at Wed Feb  8 14:51:02 2023.
