 Gaussian 16, Revision C.01,
 Gaussian 16:  ES64L-G16RevC.01  3-Jul-2019

 ----------------------------------------
 #P CCSD(T)/aug-cc-pVDZ scf(maxcycle=200)
 ----------------------------------------

 --------------
 Gaussian input
 --------------
 Symbolic Z-matrix:
 Charge =  0 Multiplicity = 1

                         Standard orientation:
 ---------------------------------------------------------------------
 Center     Atomic      Atomic             Coordinates (Angstroms)
 Number     Number       Type             X           Y           Z
 ---------------------------------------------------------------------
      1          8           0       -0.000000   -0.000000    0.134441
      2          1           0       -0.000000    0.752479   -0.537762
      3          1           0       -0.000000   -0.752479   -0.537762
 ---------------------------------------------------------------------

 SCF Done:  E(RHF) =  -76.0323093988     A.U. after   10 cycles
 E2 =    -0.2247322314D+00 EUMP2 =    -0.76257041630128D+02
 CCSD(T)
 CCSD(T)= -0.76270073511D+02

 The electronic state is 1-A1.
 Alpha  occ. eigenvalues --  -20.58935  -1.33695  -0.67687  -0.59130  -0.50794
 Alpha virt. eigenvalues --    0.03374   0.05836   0.17389   0.19995   0.21948
 Alpha virt. eigenvalues --    0.23562   0.27114   0.33773   0.38151   0.38680
 Alpha virt. eigenvalues --    0.41456   0.53953   0.63211   0.65373   0.77419

 Mulliken charges:
               1
     1  O   -0.394933
     2  H    0.197467
     3  H    0.197467
 Sum of Mulliken charges =  -0.00000

 Dipole moment (field-independent basis, Debye):
    X=             -0.0000    Y=             -0.0000    Z=             -2.1691  Tot=              2.1691
 Quadrupole moment (field-independent basis, Debye-Ang):
   XX=             -7.6945   YY=             -4.5446   ZZ=             -6.0231
   XY=              0.0000   XZ=              0.0000   YZ=              0.0000

 .2646192\CCSD=-76.264398\CCSD(T)=-76.2700735\RMSD=8.452e-09\PG=C02V [C
 Normal termination of Gaussian 16 at Wed Feb  8 14:51:11 2023.
