 Gaussian 16, Revision C.01,
 Gaussian 16:  ES64L-G16RevC.01  3-Jul-2019

 -----------------------------------
 #P HF/aug-cc-pVDZ scf(maxcycle=200)
 -----------------------------------

 --------------
 Gaussian input
 --------------
 Symbolic Z-matrix:
 Charge =  0 Multiplicity = 1

                         Standard orientation:
 ---------------------------------------------------------------------
 Center     Atomic      Atomic             Coordinates (Angstroms)
 Number     Number       Type             X           Y           Z
 ---------------------------------------------------------------------
      1          8           0       -0.000000    0.120370    0.000000
      2          1           0        0.744049   -0.561151    0.000000
      3          1           0       -0.744049   -0.401810   -0.000000
 ---------------------------------------------------------------------

 SCF Done:  E(RHF) =  -76.0359832124     A.U. after   10 cycles

 The electronic state is 1-A'.
 Alpha  occ. eigenvalues --  -20.57796  -1.35968  -0.71512  -0.58847  -0.51011
 Alpha virt. eigenvalues --    0.03508   0.05812   0.17342   0.19684   0.22130
 Alpha virt. eigenvalues --    0.23222   0.28755   0.33628   0.38587   0.40054
 Alpha virt. eigenvalues --    0.43182   0.54122   0.63844   0.66365   0.80732

 Mulliken charges:
               1
     1  O   -0.295001
     2  H    0.202572
     3  H    0.092429
 Sum of Mulliken charges =   0.00000

 Dipole moment (field-independent basis, Debye):
    X=             -0.0490    Y=             -2.0350    Z=              0.0000  Tot=              2.0356
 Quadrupole moment (field-independent basis, Debye-Ang):
   XX=             -4.3849   YY=             -6.1712   ZZ=             -7.5867
   XY=             -0.2629   XZ=              0.0000   YZ=             -0.0000

 Normal termination of Gaussian 16 at Mon Feb 20 10:28:50 2023.
