 Gaussian 16, Revision C.01,
 Gaussian 16:  ES64L-G16RevC.01  3-Jul-2019

 ------------------------------------
 #P wB97XD/6-311g** scf(maxcycle=200)
 ------------------------------------

 --------------
 Gaussian input
 --------------
 Symbolic Z-matrix:
 Charge =  0 Multiplicity = 1

                         Standard orientation:
 ---------------------------------------------------------------------
 Center     Atomic      Atomic             Coordinates (Angstroms)
 Number     Number       Type             X           Y           Z
 ---------------------------------------------------------------------
      1          8           0        0.000000    0.135276    0.000000
      2          1           0        0.677987   -0.470211    0.000000
      3          1           0       -0.677987   -0.611996    0.000000
 ---------------------------------------------------------------------

 SCF Done:  E(RwB97XD) =  -76.4135189232     A.U. after   12 cycles

 The electronic state is 1-A'.
 Alpha  occ. eigenvalues --  -19.23221  -1.11716  -0.58305  -0.49132  -0.39055
 Alpha virt. eigenvalues --    0.11214   0.19333   0.43911   0.54366   0.85258
 Alpha virt. eigenvalues --    0.85767   0.95875   1.15847   1.17439   1.40332
 Alpha virt. eigenvalues --    1.46673   1.84430   1.94829   2.19143   2.40432

 Mulliken charges:
               1
     1  O   -0.439765
     2  H    0.221861
     3  H    0.217904
 Sum of Mulliken charges =  -0.00000

 Dipole moment (field-independent basis, Debye):
    X=              0.0939    Y=             -2.2597    Z=              0.0000  Tot=              2.2616
 Quadrupole moment (field-independent basis, Debye-Ang):
   XX=             -4.8397   YY=             -5.6367   ZZ=             -7.1575
   XY=              0.1668   XZ=              0.0000   YZ=              0.0000

 Normal termination of Gaussian 16 at Wed Feb  8 14:40:43 2023.
