 Gaussian 16, Revision C.01,
 Gaussian 16:  ES64L-G16RevC.01  3-Jul-2019

 ---------------------------------
 #P B3LYP/6-31g* scf(maxcycle=200)
 ---------------------------------

 --------------
 Gaussian input
 --------------
 Symbolic Z-matrix:
 Charge =  0 Multiplicity = 1

                         Standard orientation:
 ---------------------------------------------------------------------
 Center     Atomic      Atomic             Coordinates (Angstroms)
 Number     Number       Type             X           Y           Z
 ---------------------------------------------------------------------
      1          8           0        0.000000    0.130462    0.000000
      2          1           0        0.700906   -0.448340    0.000000
      3          1           0       -0.700906   -0.595356    0.000000
 ---------------------------------------------------------------------

 SCF Done:  E(RB3LYP) =  -76.4011680037     A.U. after    9 cycles

 The electronic state is 1-A'.
 Alpha  occ. eigenvalues --  -19.14064  -1.01322  -0.50376  -0.39193  -0.29516
 Alpha virt. eigenvalues --    0.05896   0.15164   0.73920   0.87999   0.88862
 Alpha virt. eigenvalues --    0.92232   1.06794   1.23119   1.70244   1.74987
 Alpha virt. eigenvalues --    1.76831   2.28873   2.58515   3.54037

 Mulliken charges:
               1
     1  O   -0.758534
     2  H    0.388996
     3  H    0.369537
 Sum of Mulliken charges =  -0.00000

 Dipole moment (field-independent basis, Debye):
    X=              0.1045    Y=             -2.2225    Z=              0.0000  Tot=              2.2249
 Quadrupole moment (field-independent basis, Debye-Ang):
   XX=             -4.7221   YY=             -5.7302   ZZ=             -7.1861
   XY=              0.1727   XZ=              0.0000   YZ=              0.0000

 Normal termination of Gaussian 16 at Wed Feb  8 14:50:21 2023.
