 Gaussian 16, Revision C.01,
 Gaussian 16:  ES64L-G16RevC.01  3-Jul-2019

 ------------------------------------
 #P wB97XD/6-311g** scf(maxcycle=200)
 ------------------------------------

 --------------
 Gaussian input
 --------------
 Symbolic Z-matrix:
 Charge =  0 Multiplicity = 1

                         Standard orientation:
 ---------------------------------------------------------------------
 Center     Atomic      Atomic             Coordinates (Angstroms)
 Number     Number       Type             X           Y           Z
 ---------------------------------------------------------------------
      1          8           0        0.000000    0.129284   -0.000000
      2          1           0        0.673660   -0.553258    0.000000
      3          1           0       -0.673660   -0.481014    0.000000
 ---------------------------------------------------------------------

 SCF Done:  E(RwB97XD) =  -76.4165644366     A.U. after   12 cycles

 The electronic state is 1-A'.
 Alpha  occ. eigenvalues --  -19.22723  -1.12570  -0.59595  -0.48945  -0.39182
 Alpha virt. eigenvalues --    0.11953   0.19813   0.45845   0.55062   0.85290
 Alpha virt. eigenvalues --    0.85438   0.96169   1.16445   1.17700   1.40179
 Alpha virt. eigenvalues --    1.47968   1.85364   1.99759   2.20882   2.40455

 Mulliken charges:
               1
     1  O   -0.443041
     2  H    0.220303
     3  H    0.222738
 Sum of Mulliken charges =   0.00000

 Dipole moment (field-independent basis, Debye):
    X=             -0.0463    Y=             -2.2244    Z=              0.0000  Tot=              2.2249
 Quadrupole moment (field-independent basis, Debye-Ang):
   XX=             -4.7681   YY=             -5.7031   ZZ=             -7.1056
   XY=             -0.0878   XZ=             -0.0000   YZ=             -0.0000

 Normal termination of Gaussian 16 at Wed Feb  8 14:40:56 2023.
