 Gaussian 16, Revision C.01,
 Gaussian 16:  ES64L-G16RevC.01  3-Jul-2019

 ---------------------------------
 #P B3LYP/6-31g* scf(maxcycle=200)
 ---------------------------------

 --------------
 Gaussian input
 --------------
 Symbolic Z-matrix:
 Charge =  0 Multiplicity = 1

                         Standard orientation:
 ---------------------------------------------------------------------
 Center     Atomic      Atomic             Coordinates (Angstroms)
 Number     Number       Type             X           Y           Z
 ---------------------------------------------------------------------
      1          8           0        0.000000    0.127996    0.000000
      2          1           0        0.712035   -0.437060    0.000000
      3          1           0       -0.712035   -0.586908    0.000000
 ---------------------------------------------------------------------

 SCF Done:  E(RB3LYP) =  -76.4021501473     A.U. after    9 cycles

 The electronic state is 1-A'.
 Alpha  occ. eigenvalues --  -19.13971  -1.01122  -0.50763  -0.38775  -0.29452
 Alpha virt. eigenvalues --    0.05978   0.15199   0.74420   0.88095   0.88907
 Alpha virt. eigenvalues --    0.91842   1.06895   1.22367   1.70674   1.74851
 Alpha virt. eigenvalues --    1.77049   2.28292   2.59367   3.54458

 Mulliken charges:
               1
     1  O   -0.761772
     2  H    0.390174
     3  H    0.371598
 Sum of Mulliken charges =   0.00000

 Dipole moment (field-independent basis, Debye):
    X=              0.1027    Y=             -2.1947    Z=              0.0000  Tot=              2.1971
 Quadrupole moment (field-independent basis, Debye-Ang):
   XX=             -4.6338   YY=             -5.7806   ZZ=             -7.1853
   XY=              0.1842   XZ=              0.0000   YZ=              0.0000

 Normal termination of Gaussian 16 at Wed Feb  8 14:50:20 2023.
