 Gaussian 16, Revision C.01,
 Gaussian 16:  ES64L-G16RevC.01  3-Jul-2019

 ----------------------------------------
 #P PBE1PBE/aug-cc-pVDZ scf(maxcycle=200)
 ----------------------------------------

 --------------
 Gaussian input
 --------------
 Symbolic Z-matrix:
 Charge =  0 Multiplicity = 1

                         Standard orientation:
 ---------------------------------------------------------------------
 Center     Atomic      Atomic             Coordinates (Angstroms)
 Number     Number       Type             X           Y           Z
 ---------------------------------------------------------------------
      1          8           0       -0.000000    0.000000    0.125263
      2          1           0       -0.000000    0.726232   -0.501051
      3          1           0       -0.000000   -0.726232   -0.501051
 ---------------------------------------------------------------------

 SCF Done:  E(RPBE1PBE) =  -76.3589494076     A.U. after    8 cycles

 The electronic state is 1-A1.
 Alpha  occ. eigenvalues --  -19.23287  -1.05266  -0.54028  -0.42276  -0.33436
 Alpha virt. eigenvalues --   -0.01274   0.03327   0.11151   0.13231   0.14608
 Alpha virt. eigenvalues --    0.16610   0.18802   0.24694   0.29411   0.29510
 Alpha virt. eigenvalues --    0.32538   0.45931   0.51612   0.54201   0.62636

 Mulliken charges:
               1
     1  O   -0.215021
     2  H    0.107510
     3  H    0.107510
 Sum of Mulliken charges =  -0.00000

 Dipole moment (field-independent basis, Debye):
    X=             -0.0000    Y=             -0.0000    Z=             -1.9529  Tot=              1.9529
 Quadrupole moment (field-independent basis, Debye-Ang):
   XX=             -7.7356   YY=             -4.7225   ZZ=             -6.2534
   XY=              0.0000   XZ=              0.0000   YZ=              0.0000

 Normal termination of Gaussian 16 at Mon Mar 20 17:59:00 2023.
