 Gaussian 16, Revision C.01,
 Gaussian 16:  ES64L-G16RevC.01  3-Jul-2019

 ------------------------------
 #P HF/6-31g* scf(maxcycle=200)
 ------------------------------

 --------------
 Gaussian input
 --------------
 Symbolic Z-matrix:
 Charge =  0 Multiplicity = 1

                         Standard orientation:
 ---------------------------------------------------------------------
 Center     Atomic      Atomic             Coordinates (Angstroms)
 Number     Number       Type             X           Y           Z
 ---------------------------------------------------------------------
      1          8           0       -0.000000   -0.000000    0.125774
      2          1           0        0.000000    0.656355   -0.503097
      3          1           0       -0.000000   -0.656355   -0.503097
 ---------------------------------------------------------------------

 SCF Done:  E(RHF) =  -76.0008480112     A.U. after   10 cycles

 The electronic state is 1-A1.
 Alpha  occ. eigenvalues --  -20.55642  -1.38105  -0.70718  -0.60577  -0.50591
 Alpha virt. eigenvalues --    0.21580   0.31690   0.99763   1.12989   1.16472
 Alpha virt. eigenvalues --    1.28027   1.39266   1.48116   1.97670   2.03338
 Alpha virt. eigenvalues --    2.04409   2.71725   2.98170   3.96924

 Mulliken charges:
               1
     1  O   -0.845560
     2  H    0.422780
     3  H    0.422780
 Sum of Mulliken charges =  -0.00000

 Dipole moment (field-independent basis, Debye):
    X=             -0.0000    Y=             -0.0000    Z=             -2.3774  Tot=              2.3774
 Quadrupole moment (field-independent basis, Debye-Ang):
   XX=             -7.1282   YY=             -4.7391   ZZ=             -5.6446
   XY=              0.0000   XZ=              0.0000   YZ=              0.0000

 Normal termination of Gaussian 16 at Wed Feb  8 15:04:41 2023.
