 Gaussian 16, Revision C.01,
 Gaussian 16:  ES64L-G16RevC.01  3-Jul-2019

 ----------------------------------------
 #P CCSD(T)/aug-cc-pVDZ scf(maxcycle=200)
 ----------------------------------------

 --------------
 Gaussian input
 --------------
 Symbolic Z-matrix:
 Charge =  0 Multiplicity = 1

                         Standard orientation:
 ---------------------------------------------------------------------
 Center     Atomic      Atomic             Coordinates (Angstroms)
 Number     Number       Type             X           Y           Z
 ---------------------------------------------------------------------
      1          8           0       -0.000000    0.138657   -0.000000
      2          1           0        0.697840   -0.590109   -0.000000
      3          1           0       -0.697840   -0.519143    0.000000
 ---------------------------------------------------------------------

 SCF Done:  E(RHF) =  -76.0319573757     A.U. after   10 cycles
 E2 =    -0.2231820076D+00 EUMP2 =    -0.76255139383325D+02
 CCSD(T)
 CCSD(T)= -0.76268030632D+02

 The electronic state is 1-A'.
 Alpha  occ. eigenvalues --  -20.58746  -1.35420  -0.67684  -0.60794  -0.51137
 Alpha virt. eigenvalues --    0.03355   0.05905   0.17239   0.19949   0.22120
 Alpha virt. eigenvalues --    0.23648   0.27638   0.35098   0.37508   0.39164
 Alpha virt. eigenvalues --    0.41096   0.54889   0.63394   0.65990   0.77083

 Mulliken charges:
               1
     1  O   -0.340629
     2  H    0.195137
     3  H    0.145491
 Sum of Mulliken charges =   0.00000

 Dipole moment (field-independent basis, Debye):
    X=             -0.0309    Y=             -2.2378    Z=             -0.0000  Tot=              2.2380
 Quadrupole moment (field-independent basis, Debye-Ang):
   XX=             -4.8703   YY=             -5.8267   ZZ=             -7.6267
   XY=             -0.0976   XZ=             -0.0000   YZ=              0.0000

 .2627099\CCSD=-76.2624859\CCSD(T)=-76.2680306\RMSD=8.035e-09\PG=CS [SG
 Normal termination of Gaussian 16 at Wed Feb  8 14:50:39 2023.
