 Gaussian 16, Revision C.01,
 Gaussian 16:  ES64L-G16RevC.01  3-Jul-2019

 ----------------------------------------
 #P CCSD(T)/aug-cc-pVTZ scf(maxcycle=200)
 ----------------------------------------

 --------------
 Gaussian input
 --------------
 Symbolic Z-matrix:
 Charge =  0 Multiplicity = 1

                         Standard orientation:
 ---------------------------------------------------------------------
 Center     Atomic      Atomic             Coordinates (Angstroms)
 Number     Number       Type             X           Y           Z
 ---------------------------------------------------------------------
      1          8           0        0.000000    0.000000    0.112127
      2          1           0       -0.000000    0.778055   -0.448508
      3          1           0       -0.000000   -0.778055   -0.448508
 ---------------------------------------------------------------------

 SCF Done:  E(RHF) =  -76.0603257225     A.U. after   10 cycles
 E2 =    -0.2682326446D+00 EUMP2 =    -0.76328558367114D+02
 CCSD(T)
 CCSD(T)= -0.76341896073D+02

 The electronic state is 1-A1.
 Alpha  occ. eigenvalues --  -20.56573  -1.34992  -0.72430  -0.57695  -0.50904
 Alpha virt. eigenvalues --    0.02966   0.04744   0.13649   0.15793   0.17421
 Alpha virt. eigenvalues --    0.18203   0.22873   0.24438   0.26380   0.30469
 Alpha virt. eigenvalues --    0.31319   0.36517   0.43759   0.46652   0.60216

 Mulliken charges:
               1
     1  O   -0.441236
     2  H    0.220618
     3  H    0.220618
 Sum of Mulliken charges =   0.00000

 Dipole moment (field-independent basis, Debye):
    X=             -0.0000    Y=              0.0000    Z=             -1.9178  Tot=              1.9178
 Quadrupole moment (field-independent basis, Debye-Ang):
   XX=             -7.5690   YY=             -4.0683   ZZ=             -6.3653
   XY=              0.0000   XZ=              0.0000   YZ=             -0.0000

 .3337528\CCSD=-76.333275\CCSD(T)=-76.3418961\RMSD=3.790e-09\PG=C02V [C
 Normal termination of Gaussian 16 at Wed Feb  8 13:53:05 2023.
