 Gaussian 16, Revision C.01,
 Gaussian 16:  ES64L-G16RevC.01  3-Jul-2019

 ------------------------------
 #P HF/6-31g* scf(maxcycle=200)
 ------------------------------

 --------------
 Gaussian input
 --------------
 Symbolic Z-matrix:
 Charge =  0 Multiplicity = 1

                         Standard orientation:
 ---------------------------------------------------------------------
 Center     Atomic      Atomic             Coordinates (Angstroms)
 Number     Number       Type             X           Y           Z
 ---------------------------------------------------------------------
      1          8           0        0.000000   -0.000000    0.115098
      2          1           0       -0.000000    0.828791   -0.460391
      3          1           0       -0.000000   -0.828791   -0.460391
 ---------------------------------------------------------------------

 SCF Done:  E(RHF) =  -76.0023657783     A.U. after   10 cycles

 The electronic state is 1-A1.
 Alpha  occ. eigenvalues --  -20.56643  -1.31208  -0.68878  -0.54959  -0.49197
 Alpha virt. eigenvalues --    0.19858   0.29088   1.02715   1.06589   1.15153
 Alpha virt. eigenvalues --    1.16984   1.37482   1.40750   2.04212   2.04919
 Alpha virt. eigenvalues --    2.08315   2.57151   2.85493   3.95359

 Mulliken charges:
               1
     1  O   -0.870373
     2  H    0.435186
     3  H    0.435186
 Sum of Mulliken charges =  -0.00000

 Dipole moment (field-independent basis, Debye):
    X=             -0.0000    Y=             -0.0000    Z=             -2.1578  Tot=              2.1578
 Quadrupole moment (field-independent basis, Debye-Ang):
   XX=             -7.3327   YY=             -3.7282   ZZ=             -6.1622
   XY=              0.0000   XZ=              0.0000   YZ=              0.0000

 Normal termination of Gaussian 16 at Wed Feb  8 15:07:33 2023.
