 Gaussian 16, Revision C.01,
 Gaussian 16:  ES64L-G16RevC.01  3-Jul-2019

 ---------------------------------
 #P B3LYP/6-31g* scf(maxcycle=200)
 ---------------------------------

 --------------
 Gaussian input
 --------------
 Symbolic Z-matrix:
 Charge =  0 Multiplicity = 1

                         Standard orientation:
 ---------------------------------------------------------------------
 Center     Atomic      Atomic             Coordinates (Angstroms)
 Number     Number       Type             X           Y           Z
 ---------------------------------------------------------------------
      1          8           0       -0.000000    0.000000    0.103691
      2          1           0       -0.000000    0.746651   -0.414762
      3          1           0       -0.000000   -0.746651   -0.414762
 ---------------------------------------------------------------------

 SCF Done:  E(RB3LYP) =  -76.4011200486     A.U. after    9 cycles

 The electronic state is 1-A1.
 Alpha  occ. eigenvalues --  -19.12433  -1.01906  -0.55293  -0.36288  -0.29386
 Alpha virt. eigenvalues --    0.07969   0.16932   0.83237   0.88788   0.89178
 Alpha virt. eigenvalues --    0.90472   1.08865   1.18585   1.72657   1.73723
 Alpha virt. eigenvalues --    1.77856   2.36452   2.68242   3.59621

 Mulliken charges:
               1
     1  O   -0.792411
     2  H    0.396206
     3  H    0.396206
 Sum of Mulliken charges =  -0.00000

 Dipole moment (field-independent basis, Debye):
    X=             -0.0000    Y=             -0.0000    Z=             -1.9600  Tot=              1.9600
 Quadrupole moment (field-independent basis, Debye-Ang):
   XX=             -7.0813   YY=             -4.0930   ZZ=             -6.1197
   XY=              0.0000   XZ=              0.0000   YZ=              0.0000

 Normal termination of Gaussian 16 at Wed Feb  8 14:49:49 2023.
