 Gaussian 16, Revision C.01,
 Gaussian 16:  ES64L-G16RevC.01  3-Jul-2019

 ----------------------------------------
 #P CCSD(T)/aug-cc-pVTZ scf(maxcycle=200)
 ----------------------------------------

 --------------
 Gaussian input
 --------------
 Symbolic Z-matrix:
 Charge =  0 Multiplicity = 1

                         Standard orientation:
 ---------------------------------------------------------------------
 Center     Atomic      Atomic             Coordinates (Angstroms)
 Number     Number       Type             X           Y           Z
 ---------------------------------------------------------------------
      1          8           0        0.000000    0.000000    0.106628
      2          1           0        0.000000    0.797147   -0.426512
      3          1           0       -0.000000   -0.797147   -0.426512
 ---------------------------------------------------------------------

 SCF Done:  E(RHF) =  -76.0593667136     A.U. after   10 cycles
 E2 =    -0.2680537682D+00 EUMP2 =    -0.76327420481823D+02
 CCSD(T)
 CCSD(T)= -0.76340747489D+02

 The electronic state is 1-A1.
 Alpha  occ. eigenvalues --  -20.56383  -1.34720  -0.73141  -0.56927  -0.50780
 Alpha virt. eigenvalues --    0.02988   0.04720   0.13698   0.15724   0.17310
 Alpha virt. eigenvalues --    0.18112   0.23002   0.24368   0.26236   0.30905
 Alpha virt. eigenvalues --    0.31634   0.36460   0.43690   0.46641   0.60496

 Mulliken charges:
               1
     1  O   -0.442490
     2  H    0.221245
     3  H    0.221245
 Sum of Mulliken charges =  -0.00000

 Dipole moment (field-independent basis, Debye):
    X=             -0.0000    Y=              0.0000    Z=             -1.8476  Tot=              1.8476
 Quadrupole moment (field-independent basis, Debye-Ang):
   XX=             -7.5768   YY=             -3.8947   ZZ=             -6.4853
   XY=              0.0000   XZ=              0.0000   YZ=             -0.0000

 3326167\CCSD=-76.3321397\CCSD(T)=-76.3407475\RMSD=3.622e-09\PG=C02V [C
 Normal termination of Gaussian 16 at Wed Feb  8 13:53:43 2023.
