 Gaussian 16, Revision C.01,
 Gaussian 16:  ES64L-G16RevC.01  3-Jul-2019

 ----------------------------------------
 #P PBE1PBE/aug-cc-pVDZ scf(maxcycle=200)
 ----------------------------------------

 --------------
 Gaussian input
 --------------
 Symbolic Z-matrix:
 Charge =  0 Multiplicity = 1

                         Standard orientation:
 ---------------------------------------------------------------------
 Center     Atomic      Atomic             Coordinates (Angstroms)
 Number     Number       Type             X           Y           Z
 ---------------------------------------------------------------------
      1          8           0        0.000000    0.094835   -0.000000
      2          1           0        0.861015   -0.431220   -0.000000
      3          1           0       -0.861015   -0.327461    0.000000
 ---------------------------------------------------------------------

 SCF Done:  E(RPBE1PBE) =  -76.3504466895     A.U. after    9 cycles

 The electronic state is 1-A'.
 Alpha  occ. eigenvalues --  -19.22624  -1.02699  -0.56984  -0.37640  -0.32719
 Alpha virt. eigenvalues --   -0.01374   0.02978   0.11127   0.13092   0.13104
 Alpha virt. eigenvalues --    0.15877   0.20124   0.21539   0.27914   0.33754
 Alpha virt. eigenvalues --    0.35894   0.42769   0.50528   0.53230   0.67718

 Mulliken charges:
               1
     1  O   -0.328999
     2  H    0.192817
     3  H    0.136182
 Sum of Mulliken charges =  -0.00000

 Dipole moment (field-independent basis, Debye):
    X=             -0.0115    Y=             -1.5797    Z=             -0.0000  Tot=              1.5797
 Quadrupole moment (field-independent basis, Debye-Ang):
   XX=             -3.6611   YY=             -6.9774   ZZ=             -7.8543
   XY=             -0.2185   XZ=             -0.0000   YZ=              0.0000

 Normal termination of Gaussian 16 at Mon Mar 20 17:35:43 2023.
