 Gaussian 16, Revision C.01,
 Gaussian 16:  ES64L-G16RevC.01  3-Jul-2019

 ------------------------------------
 #P wB97XD/6-311g** scf(maxcycle=200)
 ------------------------------------

 --------------
 Gaussian input
 --------------
 Symbolic Z-matrix:
 Charge =  0 Multiplicity = 1

                         Standard orientation:
 ---------------------------------------------------------------------
 Center     Atomic      Atomic             Coordinates (Angstroms)
 Number     Number       Type             X           Y           Z
 ---------------------------------------------------------------------
      1          8           0        0.000000    0.115122    0.000000
      2          1           0        0.797327   -0.503223   -0.000000
      3          1           0       -0.797327   -0.417749    0.000000
 ---------------------------------------------------------------------

 SCF Done:  E(RwB97XD) =  -76.4203014141     A.U. after   12 cycles

 The electronic state is 1-A'.
 Alpha  occ. eigenvalues --  -19.22772  -1.08961  -0.60706  -0.45271  -0.38318
 Alpha virt. eigenvalues --    0.11369   0.18728   0.45495   0.48962   0.85183
 Alpha virt. eigenvalues --    0.85595   0.94655   1.15573   1.33506   1.40252
 Alpha virt. eigenvalues --    1.56310   1.69548   2.00027   2.11319   2.40160

 Mulliken charges:
               1
     1  O   -0.506099
     2  H    0.253138
     3  H    0.252961
 Sum of Mulliken charges =   0.00000

 Dipole moment (field-independent basis, Debye):
    X=             -0.0414    Y=             -2.0521    Z=              0.0000  Tot=              2.0525
 Quadrupole moment (field-independent basis, Debye-Ang):
   XX=             -3.9968   YY=             -6.1404   ZZ=             -7.2298
   XY=             -0.1413   XZ=              0.0000   YZ=              0.0000

 Normal termination of Gaussian 16 at Wed Feb  8 14:42:38 2023.
