 Gaussian 16, Revision C.01,
 Gaussian 16:  ES64L-G16RevC.01  3-Jul-2019

 -----------------------------------
 #P HF/aug-cc-pVDZ scf(maxcycle=200)
 -----------------------------------

 --------------
 Gaussian input
 --------------
 Symbolic Z-matrix:
 Charge =  0 Multiplicity = 1

                         Standard orientation:
 ---------------------------------------------------------------------
 Center     Atomic      Atomic             Coordinates (Angstroms)
 Number     Number       Type             X           Y           Z
 ---------------------------------------------------------------------
      1          8           0        0.000000    0.131163   -0.000000
      2          1           0        0.733064   -0.562161    0.000000
      3          1           0       -0.733064   -0.487140   -0.000000
 ---------------------------------------------------------------------

 SCF Done:  E(RHF) =  -76.0357255880     A.U. after   10 cycles

 The electronic state is 1-A'.
 Alpha  occ. eigenvalues --  -20.58513  -1.34955  -0.68942  -0.59604  -0.50972
 Alpha virt. eigenvalues --    0.03419   0.05851   0.17337   0.19882   0.22107
 Alpha virt. eigenvalues --    0.23480   0.27860   0.34110   0.38527   0.38822
 Alpha virt. eigenvalues --    0.41868   0.54322   0.63628   0.65931   0.78243

 Mulliken charges:
               1
     1  O   -0.342900
     2  H    0.197448
     3  H    0.145452
 Sum of Mulliken charges =   0.00000

 Dipole moment (field-independent basis, Debye):
    X=             -0.0279    Y=             -2.1483    Z=              0.0000  Tot=              2.1485
 Quadrupole moment (field-independent basis, Debye-Ang):
   XX=             -4.5926   YY=             -6.0155   ZZ=             -7.6366
   XY=             -0.1145   XZ=              0.0000   YZ=             -0.0000

 Normal termination of Gaussian 16 at Mon Feb 20 10:29:07 2023.
