 Gaussian 16, Revision C.01,
 Gaussian 16:  ES64L-G16RevC.01  3-Jul-2019

 ----------------------------------------
 #P CCSD(T)/aug-cc-pVDZ scf(maxcycle=200)
 ----------------------------------------

 --------------
 Gaussian input
 --------------
 Symbolic Z-matrix:
 Charge =  0 Multiplicity = 1

                         Standard orientation:
 ---------------------------------------------------------------------
 Center     Atomic      Atomic             Coordinates (Angstroms)
 Number     Number       Type             X           Y           Z
 ---------------------------------------------------------------------
      1          8           0        0.000000    0.141071    0.000000
      2          1           0        0.685666   -0.529409    0.000000
      3          1           0       -0.685666   -0.599161    0.000000
 ---------------------------------------------------------------------

 SCF Done:  E(RHF) =  -76.0302068153     A.U. after   10 cycles
 E2 =    -0.2234731347D+00 EUMP2 =    -0.76253679949912D+02
 CCSD(T)
 CCSD(T)= -0.76266530318D+02

 The electronic state is 1-A'.
 Alpha  occ. eigenvalues --  -20.58818  -1.35585  -0.67251  -0.61193  -0.51191
 Alpha virt. eigenvalues --    0.03332   0.05922   0.17204   0.19971   0.22112
 Alpha virt. eigenvalues --    0.23699   0.27584   0.35416   0.37204   0.39273
 Alpha virt. eigenvalues --    0.40858   0.55074   0.63300   0.66006   0.76743

 Mulliken charges:
               1
     1  O   -0.341196
     2  H    0.146151
     3  H    0.195045
 Sum of Mulliken charges =   0.00000

 Dipole moment (field-independent basis, Debye):
    X=              0.0318    Y=             -2.2666    Z=              0.0000  Tot=              2.2668
 Quadrupole moment (field-independent basis, Debye-Ang):
   XX=             -4.9626   YY=             -5.7640   ZZ=             -7.6237
   XY=              0.0925   XZ=              0.0000   YZ=              0.0000

 .261188\CCSD=-76.260958\CCSD(T)=-76.2665303\RMSD=7.691e-09\PG=CS [SG(H
 Normal termination of Gaussian 16 at Wed Feb  8 14:49:38 2023.
