 Gaussian 16, Revision C.01,
 Gaussian 16:  ES64L-G16RevC.01  3-Jul-2019

 ------------------------------------
 #P wB97XD/6-311g** scf(maxcycle=200)
 ------------------------------------

 --------------
 Gaussian input
 --------------
 Symbolic Z-matrix:
 Charge =  0 Multiplicity = 1

                         Standard orientation:
 ---------------------------------------------------------------------
 Center     Atomic      Atomic             Coordinates (Angstroms)
 Number     Number       Type             X           Y           Z
 ---------------------------------------------------------------------
      1          8           0        0.000000    0.117887    0.000000
      2          1           0        0.787213   -0.429814    0.000000
      3          1           0       -0.787213   -0.513283    0.000000
 ---------------------------------------------------------------------

 SCF Done:  E(RwB97XD) =  -76.4207149008     A.U. after   12 cycles

 The electronic state is 1-A'.
 Alpha  occ. eigenvalues --  -19.22885  -1.09113  -0.60387  -0.45667  -0.38381
 Alpha virt. eigenvalues --    0.11340   0.18715   0.45260   0.49394   0.85233
 Alpha virt. eigenvalues --    0.85559   0.94763   1.15687   1.34047   1.37363
 Alpha virt. eigenvalues --    1.55360   1.70864   1.99068   2.11915   2.39098

 Mulliken charges:
               1
     1  O   -0.498667
     2  H    0.249362
     3  H    0.249305
 Sum of Mulliken charges =  -0.00000

 Dipole moment (field-independent basis, Debye):
    X=              0.0424    Y=             -2.0814    Z=              0.0000  Tot=              2.0818
 Quadrupole moment (field-independent basis, Debye-Ang):
   XX=             -4.0876   YY=             -6.0871   ZZ=             -7.2276
   XY=              0.1338   XZ=              0.0000   YZ=              0.0000

 Normal termination of Gaussian 16 at Wed Feb  8 14:41:48 2023.
