 Gaussian 16, Revision C.01,
 Gaussian 16:  ES64L-G16RevC.01  3-Jul-2019

 ------------------------------------
 #P wB97XD/6-311g** scf(maxcycle=200)
 ------------------------------------

 --------------
 Gaussian input
 --------------
 Symbolic Z-matrix:
 Charge =  0 Multiplicity = 1

                         Standard orientation:
 ---------------------------------------------------------------------
 Center     Atomic      Atomic             Coordinates (Angstroms)
 Number     Number       Type             X           Y           Z
 ---------------------------------------------------------------------
      1          8           0        0.000000    0.000000    0.106281
      2          1           0       -0.000000    0.737489   -0.425124
      3          1           0       -0.000000   -0.737489   -0.425124
 ---------------------------------------------------------------------

 SCF Done:  E(RwB97XD) =  -76.4181748560     A.U. after   12 cycles

 The electronic state is 1-A1.
 Alpha  occ. eigenvalues --  -19.21536  -1.12241  -0.63775  -0.45934  -0.38960
 Alpha virt. eigenvalues --    0.13009   0.20180   0.49856   0.52784   0.84711
 Alpha virt. eigenvalues --    0.85446   0.95772   1.14703   1.34931   1.37865
 Alpha virt. eigenvalues --    1.58227   1.76268   2.10269   2.17161   2.42502

 Mulliken charges:
               1
     1  O   -0.495763
     2  H    0.247882
     3  H    0.247882
 Sum of Mulliken charges =  -0.00000

 Dipole moment (field-independent basis, Debye):
    X=             -0.0000    Y=             -0.0000    Z=             -2.0103  Tot=              2.0103
 Quadrupole moment (field-independent basis, Debye-Ang):
   XX=             -7.0620   YY=             -4.1506   ZZ=             -6.1020
   XY=              0.0000   XZ=              0.0000   YZ=             -0.0000

 Normal termination of Gaussian 16 at Wed Feb  8 14:40:01 2023.
