 Gaussian 16, Revision C.01,
 Gaussian 16:  ES64L-G16RevC.01  3-Jul-2019

 ---------------------------------
 #P B3LYP/6-31g* scf(maxcycle=200)
 ---------------------------------

 --------------
 Gaussian input
 --------------
 Symbolic Z-matrix:
 Charge =  0 Multiplicity = 1

                         Standard orientation:
 ---------------------------------------------------------------------
 Center     Atomic      Atomic             Coordinates (Angstroms)
 Number     Number       Type             X           Y           Z
 ---------------------------------------------------------------------
      1          8           0        0.000000    0.122949   -0.000000
      2          1           0        0.733611   -0.569796   -0.000000
      3          1           0       -0.733611   -0.413797    0.000000
 ---------------------------------------------------------------------

 SCF Done:  E(RB3LYP) =  -76.4033926176     A.U. after    9 cycles

 The electronic state is 1-A'.
 Alpha  occ. eigenvalues --  -19.13777  -1.00736  -0.51505  -0.37946  -0.29321
 Alpha virt. eigenvalues --    0.06108   0.15277   0.75513   0.88268   0.89000
 Alpha virt. eigenvalues --    0.90862   1.07108   1.20826   1.71710   1.74564
 Alpha virt. eigenvalues --    1.77504   2.27593   2.60762   3.55264

 Mulliken charges:
               1
     1  O   -0.768361
     2  H    0.375787
     3  H    0.392574
 Sum of Mulliken charges =  -0.00000

 Dipole moment (field-independent basis, Debye):
    X=             -0.0989    Y=             -2.1373    Z=              0.0000  Tot=              2.1396
 Quadrupole moment (field-independent basis, Debye-Ang):
   XX=             -4.4578   YY=             -5.8802   ZZ=             -7.1837
   XY=             -0.2085   XZ=              0.0000   YZ=              0.0000

 Normal termination of Gaussian 16 at Wed Feb  8 14:51:52 2023.
