 Gaussian 16, Revision C.01,
 Gaussian 16:  ES64L-G16RevC.01  3-Jul-2019

 ------------------------------
 #P HF/6-31g* scf(maxcycle=200)
 ------------------------------

 --------------
 Gaussian input
 --------------
 Symbolic Z-matrix:
 Charge =  0 Multiplicity = 1

                         Standard orientation:
 ---------------------------------------------------------------------
 Center     Atomic      Atomic             Coordinates (Angstroms)
 Number     Number       Type             X           Y           Z
 ---------------------------------------------------------------------
      1          8           0        0.000000    0.115105    0.000000
      2          1           0        0.764207   -0.377104    0.000000
      3          1           0       -0.764207   -0.543734    0.000000
 ---------------------------------------------------------------------

 SCF Done:  E(RHF) =  -76.0052545021     A.U. after   10 cycles

 The electronic state is 1-A'.
 Alpha  occ. eigenvalues --  -20.55926  -1.34179  -0.71022  -0.56596  -0.49727
 Alpha virt. eigenvalues --    0.20826   0.30456   1.01836   1.13046   1.16832
 Alpha virt. eigenvalues --    1.17676   1.38781   1.42882   2.02595   2.03176
 Alpha virt. eigenvalues --    2.07090   2.60493   2.96657   3.97496

 Mulliken charges:
               1
     1  O   -0.866508
     2  H    0.437335
     3  H    0.429173
 Sum of Mulliken charges =   0.00000

 Dipole moment (field-independent basis, Debye):
    X=              0.0788    Y=             -2.1907    Z=              0.0000  Tot=              2.1921
 Quadrupole moment (field-independent basis, Debye-Ang):
   XX=             -4.0609   YY=             -5.9987   ZZ=             -7.2283
   XY=              0.2723   XZ=              0.0000   YZ=              0.0000

 Normal termination of Gaussian 16 at Wed Feb  8 15:05:31 2023.
