 Gaussian 16, Revision C.01,
 Gaussian 16:  ES64L-G16RevC.01  3-Jul-2019

 ------------------------------------
 #P wB97XD/6-311g** scf(maxcycle=200)
 ------------------------------------

 --------------
 Gaussian input
 --------------
 Symbolic Z-matrix:
 Charge =  0 Multiplicity = 1

                         Standard orientation:
 ---------------------------------------------------------------------
 Center     Atomic      Atomic             Coordinates (Angstroms)
 Number     Number       Type             X           Y           Z
 ---------------------------------------------------------------------
      1          8           0        0.000000    0.000000    0.101069
      2          1           0       -0.000000    0.755585   -0.404274
      3          1           0       -0.000000   -0.755585   -0.404274
 ---------------------------------------------------------------------

 SCF Done:  E(RwB97XD) =  -76.4173984037     A.U. after   12 cycles

 The electronic state is 1-A1.
 Alpha  occ. eigenvalues --  -19.21337  -1.11898  -0.64477  -0.45162  -0.38851
 Alpha virt. eigenvalues --    0.13106   0.20161   0.50703   0.51492   0.84714
 Alpha virt. eigenvalues --    0.85499   0.95560   1.14578   1.33779   1.43743
 Alpha virt. eigenvalues --    1.60391   1.73663   2.12298   2.15379   2.44394

 Mulliken charges:
               1
     1  O   -0.509766
     2  H    0.254883
     3  H    0.254883
 Sum of Mulliken charges =   0.00000

 Dipole moment (field-independent basis, Debye):
    X=             -0.0000    Y=              0.0000    Z=             -1.9493  Tot=              1.9493
 Quadrupole moment (field-independent basis, Debye-Ang):
   XX=             -7.0656   YY=             -3.9940   ZZ=             -6.1973
   XY=              0.0000   XZ=              0.0000   YZ=              0.0000

 Normal termination of Gaussian 16 at Wed Feb  8 14:40:09 2023.
