 Gaussian 16, Revision C.01,
 Gaussian 16:  ES64L-G16RevC.01  3-Jul-2019

 ----------------------------------------
 #P PBE1PBE/aug-cc-pVDZ scf(maxcycle=200)
 ----------------------------------------

 --------------
 Gaussian input
 --------------
 Symbolic Z-matrix:
 Charge =  0 Multiplicity = 1

                         Standard orientation:
 ---------------------------------------------------------------------
 Center     Atomic      Atomic             Coordinates (Angstroms)
 Number     Number       Type             X           Y           Z
 ---------------------------------------------------------------------
      1          8           0        0.000000    0.126913    0.000000
      2          1           0        0.684803   -0.470855    0.000000
      3          1           0       -0.684803   -0.544448    0.000000
 ---------------------------------------------------------------------

 SCF Done:  E(RPBE1PBE) =  -76.3536160466     A.U. after    8 cycles

 The electronic state is 1-A'.
 Alpha  occ. eigenvalues --  -19.22998  -1.06841  -0.54139  -0.43286  -0.33728
 Alpha virt. eigenvalues --   -0.01172   0.03473   0.11129   0.13210   0.14831
 Alpha virt. eigenvalues --    0.17242   0.18993   0.25700   0.29160   0.29927
 Alpha virt. eigenvalues --    0.32431   0.46738   0.51888   0.55219   0.62479

 Mulliken charges:
               1
     1  O   -0.159839
     2  H    0.056526
     3  H    0.103313
 Sum of Mulliken charges =  -0.00000

 Dipole moment (field-independent basis, Debye):
    X=              0.0292    Y=             -1.9928    Z=              0.0000  Tot=              1.9930
 Quadrupole moment (field-independent basis, Debye-Ang):
   XX=             -4.9253   YY=             -6.1218   ZZ=             -7.6653
   XY=              0.1032   XZ=              0.0000   YZ=              0.0000

 Normal termination of Gaussian 16 at Mon Mar 20 17:33:18 2023.
