 Gaussian 16, Revision C.01,
 Gaussian 16:  ES64L-G16RevC.01  3-Jul-2019

 ----------------------------------------
 #P CCSD(T)/aug-cc-pVDZ scf(maxcycle=200)
 ----------------------------------------

 --------------
 Gaussian input
 --------------
 Symbolic Z-matrix:
 Charge =  0 Multiplicity = 1

                         Standard orientation:
 ---------------------------------------------------------------------
 Center     Atomic      Atomic             Coordinates (Angstroms)
 Number     Number       Type             X           Y           Z
 ---------------------------------------------------------------------
      1          8           0        0.000000   -0.000000    0.130279
      2          1           0        0.000000    0.634007   -0.521116
      3          1           0       -0.000000   -0.634007   -0.521116
 ---------------------------------------------------------------------

 SCF Done:  E(RHF) =  -76.0285695636     A.U. after    9 cycles
 E2 =    -0.2166842414D+00 EUMP2 =    -0.76245253805057D+02
 CCSD(T)
 CCSD(T)= -0.76257990287D+02

 The electronic state is 1-A1.
 Alpha  occ. eigenvalues --  -20.57458  -1.39808  -0.70834  -0.62820  -0.51780
 Alpha virt. eigenvalues --    0.03457   0.05952   0.17051   0.19644   0.22557
 Alpha virt. eigenvalues --    0.23404   0.29912   0.36325   0.38379   0.39828
 Alpha virt. eigenvalues --    0.41951   0.56112   0.65186   0.65793   0.80792

 Mulliken charges:
               1
     1  O   -0.187542
     2  H    0.093771
     3  H    0.093771
 Sum of Mulliken charges =  -0.00000

 Dipole moment (field-independent basis, Debye):
    X=             -0.0000    Y=             -0.0000    Z=             -2.1938  Tot=              2.1938
 Quadrupole moment (field-independent basis, Debye-Ang):
   XX=             -7.4467   YY=             -5.0327   ZZ=             -5.7792
   XY=              0.0000   XZ=              0.0000   YZ=              0.0000

 2531911\CCSD=-76.2529882\CCSD(T)=-76.2579903\RMSD=9.554e-09\PG=C02V [C
 Normal termination of Gaussian 16 at Wed Feb  8 14:46:57 2023.
