 Gaussian 16, Revision C.01,
 Gaussian 16:  ES64L-G16RevC.01  3-Jul-2019

 -----------------------------------
 #P HF/aug-cc-pVDZ scf(maxcycle=200)
 -----------------------------------

 --------------
 Gaussian input
 --------------
 Symbolic Z-matrix:
 Charge =  0 Multiplicity = 1

                         Standard orientation:
 ---------------------------------------------------------------------
 Center     Atomic      Atomic             Coordinates (Angstroms)
 Number     Number       Type             X           Y           Z
 ---------------------------------------------------------------------
      1          8           0        0.000000    0.000000    0.139611
      2          1           0        0.000000    0.728561   -0.558444
      3          1           0       -0.000000   -0.728561   -0.558444
 ---------------------------------------------------------------------

 SCF Done:  E(RHF) =  -76.0302607344     A.U. after   10 cycles

 The electronic state is 1-A1.
 Alpha  occ. eigenvalues --  -20.59099  -1.33982  -0.66889  -0.59916  -0.50908
 Alpha virt. eigenvalues --    0.03333   0.05872   0.17325   0.20036   0.21975
 Alpha virt. eigenvalues --    0.23681   0.26931   0.34442   0.37456   0.38930
 Alpha virt. eigenvalues --    0.40916   0.54339   0.63063   0.65436   0.76631

 Mulliken charges:
               1
     1  O   -0.391765
     2  H    0.195883
     3  H    0.195883
 Sum of Mulliken charges =  -0.00000

 Dipole moment (field-independent basis, Debye):
    X=             -0.0000    Y=              0.0000    Z=             -2.2304  Tot=              2.2304
 Quadrupole moment (field-independent basis, Debye-Ang):
   XX=             -7.6875   YY=             -4.7387   ZZ=             -5.8918
   XY=              0.0000   XZ=              0.0000   YZ=             -0.0000

 Normal termination of Gaussian 16 at Mon Feb 20 10:17:19 2023.
