 Gaussian 16, Revision C.01,
 Gaussian 16:  ES64L-G16RevC.01  3-Jul-2019

 ----------------------------------------
 #P PBE1PBE/aug-cc-pVDZ scf(maxcycle=200)
 ----------------------------------------

 --------------
 Gaussian input
 --------------
 Symbolic Z-matrix:
 Charge =  0 Multiplicity = 1

                         Standard orientation:
 ---------------------------------------------------------------------
 Center     Atomic      Atomic             Coordinates (Angstroms)
 Number     Number       Type             X           Y           Z
 ---------------------------------------------------------------------
      1          8           0       -0.000000    0.000000    0.135089
      2          1           0        0.000000    0.680773   -0.540358
      3          1           0       -0.000000   -0.680773   -0.540358
 ---------------------------------------------------------------------

 SCF Done:  E(RPBE1PBE) =  -76.3546402598     A.U. after    8 cycles

 The electronic state is 1-A1.
 Alpha  occ. eigenvalues --  -19.23562  -1.05935  -0.52362  -0.43849  -0.33601
 Alpha virt. eigenvalues --   -0.01417   0.03408   0.10968   0.13294   0.14746
 Alpha virt. eigenvalues --    0.16659   0.18538   0.25935   0.28113   0.30009
 Alpha virt. eigenvalues --    0.31485   0.46687   0.51167   0.54593   0.61111

 Mulliken charges:
               1
     1  O   -0.214280
     2  H    0.107140
     3  H    0.107140
 Sum of Mulliken charges =  -0.00000

 Dipole moment (field-independent basis, Debye):
    X=             -0.0000    Y=             -0.0000    Z=             -2.0584  Tot=              2.0584
 Quadrupole moment (field-independent basis, Debye-Ang):
   XX=             -7.7207   YY=             -5.0598   ZZ=             -6.0173
   XY=              0.0000   XZ=              0.0000   YZ=              0.0000

 Normal termination of Gaussian 16 at Mon Mar 20 17:59:04 2023.
