 Gaussian 16, Revision C.01,
 Gaussian 16:  ES64L-G16RevC.01  3-Jul-2019

 -----------------------------------
 #P HF/aug-cc-pVDZ scf(maxcycle=200)
 -----------------------------------

 --------------
 Gaussian input
 --------------
 Symbolic Z-matrix:
 Charge =  0 Multiplicity = 1

                         Standard orientation:
 ---------------------------------------------------------------------
 Center     Atomic      Atomic             Coordinates (Angstroms)
 Number     Number       Type             X           Y           Z
 ---------------------------------------------------------------------
      1          8           0        0.000000    0.000000    0.087513
      2          1           0       -0.000000    0.796754   -0.350053
      3          1           0       -0.000000   -0.796754   -0.350053
 ---------------------------------------------------------------------

 SCF Done:  E(RHF) =  -76.0334529045     A.U. after   10 cycles

 The electronic state is 1-A1.
 Alpha  occ. eigenvalues --  -20.56063  -1.37009  -0.78081  -0.55980  -0.50893
 Alpha virt. eigenvalues --    0.03746   0.05665   0.17472   0.19187   0.22242
 Alpha virt. eigenvalues --    0.22441   0.31375   0.31613   0.38023   0.44857
 Alpha virt. eigenvalues --    0.46989   0.52758   0.65269   0.66609   0.88020

 Mulliken charges:
               1
     1  O   -0.240101
     2  H    0.120051
     3  H    0.120051
 Sum of Mulliken charges =  -0.00000

 Dipole moment (field-independent basis, Debye):
    X=             -0.0000    Y=              0.0000    Z=             -1.6451  Tot=              1.6451
 Quadrupole moment (field-independent basis, Debye-Ang):
   XX=             -7.5080   YY=             -3.6986   ZZ=             -6.7284
   XY=              0.0000   XZ=              0.0000   YZ=             -0.0000

 Normal termination of Gaussian 16 at Mon Feb 20 10:27:01 2023.
