 Gaussian 16, Revision C.01,
 Gaussian 16:  ES64L-G16RevC.01  3-Jul-2019

 ----------------------------------------
 #P CCSD(T)/aug-cc-pVTZ scf(maxcycle=200)
 ----------------------------------------

 --------------
 Gaussian input
 --------------
 Symbolic Z-matrix:
 Charge =  0 Multiplicity = 1

                         Standard orientation:
 ---------------------------------------------------------------------
 Center     Atomic      Atomic             Coordinates (Angstroms)
 Number     Number       Type             X           Y           Z
 ---------------------------------------------------------------------
      1          8           0       -0.000000   -0.000000    0.149435
      2          1           0        0.000000    0.678092   -0.597741
      3          1           0       -0.000000   -0.678092   -0.597741
 ---------------------------------------------------------------------

 SCF Done:  E(RHF) =  -76.0418795377     A.U. after   10 cycles
 E2 =    -0.2752991792D+00 EUMP2 =    -0.76317178716866D+02
 CCSD(T)
 CCSD(T)= -0.76330228627D+02

 The electronic state is 1-A1.
 Alpha  occ. eigenvalues --  -20.58407  -1.34296  -0.65094  -0.61417  -0.51222
 Alpha virt. eigenvalues --    0.02712   0.04878   0.13154   0.16362   0.17623
 Alpha virt. eigenvalues --    0.18802   0.21545   0.24575   0.27271   0.27911
 Alpha virt. eigenvalues --    0.30068   0.36792   0.42194   0.45085   0.58739

 Mulliken charges:
               1
     1  O   -0.512237
     2  H    0.256119
     3  H    0.256119
 Sum of Mulliken charges =  -0.00000

 Dipole moment (field-independent basis, Debye):
    X=             -0.0000    Y=             -0.0000    Z=             -2.3352  Tot=              2.3352
 Quadrupole moment (field-independent basis, Debye-Ang):
   XX=             -7.6485   YY=             -5.0975   ZZ=             -5.6064
   XY=              0.0000   XZ=              0.0000   YZ=              0.0000

 .3213808\CCSD=-76.320795\CCSD(T)=-76.3302286\RMSD=4.907e-09\PG=C02V [C
 Normal termination of Gaussian 16 at Wed Feb  8 13:57:09 2023.
