 Gaussian 16, Revision C.01,
 Gaussian 16:  ES64L-G16RevC.01  3-Jul-2019

 ----------------------------------------
 #P CCSD(T)/aug-cc-pVTZ scf(maxcycle=200)
 ----------------------------------------

 --------------
 Gaussian input
 --------------
 Symbolic Z-matrix:
 Charge =  0 Multiplicity = 1

                         Standard orientation:
 ---------------------------------------------------------------------
 Center     Atomic      Atomic             Coordinates (Angstroms)
 Number     Number       Type             X           Y           Z
 ---------------------------------------------------------------------
      1          8           0       -0.000000   -0.000000    0.125774
      2          1           0        0.000000    0.656355   -0.503097
      3          1           0       -0.000000   -0.656355   -0.503097
 ---------------------------------------------------------------------

 SCF Done:  E(RHF) =  -76.0522879395     A.U. after    9 cycles
 E2 =    -0.2657409937D+00 EUMP2 =    -0.76318028933156D+02
 CCSD(T)
 CCSD(T)= -0.76331240846D+02

 The electronic state is 1-A1.
 Alpha  occ. eigenvalues --  -20.56268  -1.39087  -0.71734  -0.61885  -0.51778
 Alpha virt. eigenvalues --    0.02912   0.04859   0.13401   0.15816   0.17818
 Alpha virt. eigenvalues --    0.18556   0.22858   0.24932   0.26996   0.29157
 Alpha virt. eigenvalues --    0.30546   0.37159   0.44462   0.47599   0.59552

 Mulliken charges:
               1
     1  O   -0.364687
     2  H    0.182343
     3  H    0.182343
 Sum of Mulliken charges =   0.00000

 Dipole moment (field-independent basis, Debye):
    X=             -0.0000    Y=             -0.0000    Z=             -2.1231  Tot=              2.1231
 Quadrupole moment (field-independent basis, Debye-Ang):
   XX=             -7.4302   YY=             -4.8377   ZZ=             -5.8641
   XY=              0.0000   XZ=              0.0000   YZ=              0.0000

 .3234261\CCSD=-76.3229858\CCSD(T)=-76.3312408\RMSD=6.173e-09\PG=C02V [
 Normal termination of Gaussian 16 at Wed Feb  8 13:49:00 2023.
