 Gaussian 16, Revision C.01,
 Gaussian 16:  ES64L-G16RevC.01  3-Jul-2019

 ---------------------------------
 #P B3LYP/6-31g* scf(maxcycle=200)
 ---------------------------------

 --------------
 Gaussian input
 --------------
 Symbolic Z-matrix:
 Charge =  0 Multiplicity = 1

                         Standard orientation:
 ---------------------------------------------------------------------
 Center     Atomic      Atomic             Coordinates (Angstroms)
 Number     Number       Type             X           Y           Z
 ---------------------------------------------------------------------
      1          8           0        0.000000    0.126913   -0.000000
      2          1           0        0.684803   -0.544448    0.000000
      3          1           0       -0.684803   -0.470855    0.000000
 ---------------------------------------------------------------------

 SCF Done:  E(RB3LYP) =  -76.4019625561     A.U. after    9 cycles

 The electronic state is 1-A'.
 Alpha  occ. eigenvalues --  -19.13637  -1.02359  -0.51262  -0.39371  -0.29682
 Alpha virt. eigenvalues --    0.06778   0.15935   0.75462   0.88045   0.88851
 Alpha virt. eigenvalues --    0.94556   1.07204   1.23300   1.69593   1.74610
 Alpha virt. eigenvalues --    1.76310   2.33666   2.60882   3.55112

 Mulliken charges:
               1
     1  O   -0.764728
     2  H    0.378400
     3  H    0.386327
 Sum of Mulliken charges =   0.00000

 Dipole moment (field-independent basis, Debye):
    X=             -0.0512    Y=             -2.2163    Z=              0.0000  Tot=              2.2169
 Quadrupole moment (field-independent basis, Debye-Ang):
   XX=             -4.7314   YY=             -5.7403   ZZ=             -7.1382
   XY=             -0.0862   XZ=             -0.0000   YZ=             -0.0000

 Normal termination of Gaussian 16 at Wed Feb  8 14:50:42 2023.
