 Gaussian 16, Revision C.01,
 Gaussian 16:  ES64L-G16RevC.01  3-Jul-2019

 ------------------------------------
 #P wB97XD/6-311g** scf(maxcycle=200)
 ------------------------------------

 --------------
 Gaussian input
 --------------
 Symbolic Z-matrix:
 Charge =  0 Multiplicity = 1

                         Standard orientation:
 ---------------------------------------------------------------------
 Center     Atomic      Atomic             Coordinates (Angstroms)
 Number     Number       Type             X           Y           Z
 ---------------------------------------------------------------------
      1          8           0       -0.000000    0.138657   -0.000000
      2          1           0        0.697840   -0.590109   -0.000000
      3          1           0       -0.697840   -0.519143    0.000000
 ---------------------------------------------------------------------

 SCF Done:  E(RwB97XD) =  -76.4169029755     A.U. after   11 cycles

 The electronic state is 1-A'.
 Alpha  occ. eigenvalues --  -19.23690  -1.10426  -0.57458  -0.48937  -0.38859
 Alpha virt. eigenvalues --    0.10889   0.18667   0.43354   0.52068   0.85294
 Alpha virt. eigenvalues --    0.86048   0.95553   1.15850   1.17631   1.39719
 Alpha virt. eigenvalues --    1.46289   1.82179   1.93736   2.14783   2.38704

 Mulliken charges:
               1
     1  O   -0.441018
     2  H    0.219781
     3  H    0.221237
 Sum of Mulliken charges =   0.00000

 Dipole moment (field-independent basis, Debye):
    X=             -0.0475    Y=             -2.2754    Z=              0.0000  Tot=              2.2759
 Quadrupole moment (field-independent basis, Debye-Ang):
   XX=             -4.8124   YY=             -5.6481   ZZ=             -7.2126
   XY=             -0.0845   XZ=              0.0000   YZ=              0.0000

 Normal termination of Gaussian 16 at Wed Feb  8 14:42:30 2023.
