 Gaussian 16, Revision C.01,
 Gaussian 16:  ES64L-G16RevC.01  3-Jul-2019

 ------------------------------
 #P HF/6-31g* scf(maxcycle=200)
 ------------------------------

 --------------
 Gaussian input
 --------------
 Symbolic Z-matrix:
 Charge =  0 Multiplicity = 1

                         Standard orientation:
 ---------------------------------------------------------------------
 Center     Atomic      Atomic             Coordinates (Angstroms)
 Number     Number       Type             X           Y           Z
 ---------------------------------------------------------------------
      1          8           0        0.000000    0.127996    0.000000
      2          1           0        0.712035   -0.437060    0.000000
      3          1           0       -0.712035   -0.586908    0.000000
 ---------------------------------------------------------------------

 SCF Done:  E(RHF) =  -76.0030699906     A.U. after   10 cycles

 The electronic state is 1-A'.
 Alpha  occ. eigenvalues --  -20.56474  -1.35072  -0.69135  -0.58637  -0.50130
 Alpha virt. eigenvalues --    0.20599   0.30364   0.98271   1.13072   1.16553
 Alpha virt. eigenvalues --    1.20606   1.38145   1.46755   1.99886   2.03893
 Alpha virt. eigenvalues --    2.05980   2.61051   2.94214   3.95499

 Mulliken charges:
               1
     1  O   -0.848377
     2  H    0.430733
     3  H    0.417644
 Sum of Mulliken charges =  -0.00000

 Dipole moment (field-independent basis, Debye):
    X=              0.0913    Y=             -2.3587    Z=              0.0000  Tot=              2.3605
 Quadrupole moment (field-independent basis, Debye-Ang):
   XX=             -4.5198   YY=             -5.7331   ZZ=             -7.2301
   XY=              0.2036   XZ=              0.0000   YZ=              0.0000

 Normal termination of Gaussian 16 at Wed Feb  8 15:05:32 2023.
