 Gaussian 16, Revision C.01,
 Gaussian 16:  ES64L-G16RevC.01  3-Jul-2019

 ----------------------------------------
 #P CCSD(T)/aug-cc-pVDZ scf(maxcycle=200)
 ----------------------------------------

 --------------
 Gaussian input
 --------------
 Symbolic Z-matrix:
 Charge =  0 Multiplicity = 1

                         Standard orientation:
 ---------------------------------------------------------------------
 Center     Atomic      Atomic             Coordinates (Angstroms)
 Number     Number       Type             X           Y           Z
 ---------------------------------------------------------------------
      1          8           0        0.000000    0.138368    0.000000
      2          1           0        0.627054   -0.519723    0.000000
      3          1           0       -0.627054   -0.587224    0.000000
 ---------------------------------------------------------------------

 SCF Done:  E(RHF) =  -76.0259748571     A.U. after   10 cycles
 E2 =    -0.2194867977D+00 EUMP2 =    -0.76245461654730D+02
 CCSD(T)
 CCSD(T)= -0.76258160787D+02

 The electronic state is 1-A'.
 Alpha  occ. eigenvalues --  -20.58050  -1.38754  -0.68641  -0.63089  -0.51671
 Alpha virt. eigenvalues --    0.03369   0.05979   0.17037   0.19805   0.22382
 Alpha virt. eigenvalues --    0.23598   0.29062   0.36472   0.37586   0.39807
 Alpha virt. eigenvalues --    0.41174   0.56117   0.64285   0.65930   0.78739

 Mulliken charges:
               1
     1  O   -0.244716
     2  H    0.098423
     3  H    0.146293
 Sum of Mulliken charges =  -0.00000

 Dipole moment (field-independent basis, Debye):
    X=              0.0330    Y=             -2.2734    Z=              0.0000  Tot=              2.2736
 Quadrupole moment (field-independent basis, Debye-Ang):
   XX=             -5.1815   YY=             -5.6569   ZZ=             -7.5016
   XY=              0.0808   XZ=              0.0000   YZ=              0.0000

 531431\CCSD=-76.2529218\CCSD(T)=-76.2581608\RMSD=4.624e-09\PG=CS [SG(H
 Normal termination of Gaussian 16 at Wed Feb  8 14:47:26 2023.
