 Gaussian 16, Revision C.01,
 Gaussian 16:  ES64L-G16RevC.01  3-Jul-2019

 ----------------------------------------
 #P CCSD(T)/aug-cc-pVTZ scf(maxcycle=200)
 ----------------------------------------

 --------------
 Gaussian input
 --------------
 Symbolic Z-matrix:
 Charge =  0 Multiplicity = 1

                         Standard orientation:
 ---------------------------------------------------------------------
 Center     Atomic      Atomic             Coordinates (Angstroms)
 Number     Number       Type             X           Y           Z
 ---------------------------------------------------------------------
      1          8           0        0.000000    0.000000    0.137445
      2          1           0        0.000000    0.668881   -0.549780
      3          1           0       -0.000000   -0.668881   -0.549780
 ---------------------------------------------------------------------

 SCF Done:  E(RHF) =  -76.0520933804     A.U. after   10 cycles
 E2 =    -0.2703685533D+00 EUMP2 =    -0.76322461933742D+02
 CCSD(T)
 CCSD(T)= -0.76335600500D+02

 The electronic state is 1-A1.
 Alpha  occ. eigenvalues --  -20.57374  -1.36550  -0.68253  -0.61683  -0.51465
 Alpha virt. eigenvalues --    0.02819   0.04870   0.13302   0.16107   0.17748
 Alpha virt. eigenvalues --    0.18707   0.22241   0.24730   0.27122   0.28507
 Alpha virt. eigenvalues --    0.30273   0.36986   0.43342   0.46521   0.59016

 Mulliken charges:
               1
     1  O   -0.450812
     2  H    0.225406
     3  H    0.225406
 Sum of Mulliken charges =   0.00000

 Dipole moment (field-independent basis, Debye):
    X=             -0.0000    Y=              0.0000    Z=             -2.2299  Tot=              2.2299
 Quadrupole moment (field-independent basis, Debye-Ang):
   XX=             -7.5420   YY=             -4.9566   ZZ=             -5.7481
   XY=              0.0000   XZ=              0.0000   YZ=             -0.0000

 .3272889\CCSD=-76.3267829\CCSD(T)=-76.3356005\RMSD=3.394e-09\PG=C02V [
 Normal termination of Gaussian 16 at Wed Feb  8 13:52:38 2023.
