 Gaussian 16, Revision C.01,
 Gaussian 16:  ES64L-G16RevC.01  3-Jul-2019

 ------------------------------------
 #P wB97XD/6-311g** scf(maxcycle=200)
 ------------------------------------

 --------------
 Gaussian input
 --------------
 Symbolic Z-matrix:
 Charge =  0 Multiplicity = 1

                         Standard orientation:
 ---------------------------------------------------------------------
 Center     Atomic      Atomic             Coordinates (Angstroms)
 Number     Number       Type             X           Y           Z
 ---------------------------------------------------------------------
      1          8           0        0.000000    0.101356    0.000000
      2          1           0        0.810186   -0.500041   -0.000000
      3          1           0       -0.810186   -0.310808    0.000000
 ---------------------------------------------------------------------

 SCF Done:  E(RwB97XD) =  -76.4148292070     A.U. after   12 cycles

 The electronic state is 1-A'.
 Alpha  occ. eigenvalues --  -19.21871  -1.09547  -0.62895  -0.43937  -0.38279
 Alpha virt. eigenvalues --    0.11856   0.19328   0.45334   0.51172   0.85029
 Alpha virt. eigenvalues --    0.85664   0.94639   1.15138   1.32081   1.49880
 Alpha virt. eigenvalues --    1.60628   1.66550   2.04800   2.12979   2.46046

 Mulliken charges:
               1
     1  O   -0.532070
     2  H    0.266590
     3  H    0.265479
 Sum of Mulliken charges =   0.00000

 Dipole moment (field-independent basis, Debye):
    X=             -0.0736    Y=             -1.9117    Z=             -0.0000  Tot=              1.9131
 Quadrupole moment (field-independent basis, Debye-Ang):
   XX=             -3.7329   YY=             -6.2933   ZZ=             -7.1815
   XY=             -0.3452   XZ=             -0.0000   YZ=              0.0000

 Normal termination of Gaussian 16 at Wed Feb  8 14:42:25 2023.
