 Gaussian 16, Revision C.01,
 Gaussian 16:  ES64L-G16RevC.01  3-Jul-2019

 ----------------------------------------
 #P CCSD(T)/aug-cc-pVTZ scf(maxcycle=200)
 ----------------------------------------

 --------------
 Gaussian input
 --------------
 Symbolic Z-matrix:
 Charge =  0 Multiplicity = 1

                         Standard orientation:
 ---------------------------------------------------------------------
 Center     Atomic      Atomic             Coordinates (Angstroms)
 Number     Number       Type             X           Y           Z
 ---------------------------------------------------------------------
      1          8           0        0.000000    0.000000    0.101069
      2          1           0       -0.000000    0.755585   -0.404274
      3          1           0       -0.000000   -0.755585   -0.404274
 ---------------------------------------------------------------------

 SCF Done:  E(RHF) =  -76.0581699306     A.U. after   10 cycles
 E2 =    -0.2642110056D+00 EUMP2 =    -0.76322380936225D+02
 CCSD(T)
 CCSD(T)= -0.76335673044D+02

 The electronic state is 1-A1.
 Alpha  occ. eigenvalues --  -20.55500  -1.37401  -0.76141  -0.57844  -0.51255
 Alpha virt. eigenvalues --    0.03047   0.04740   0.13690   0.15445   0.17482
 Alpha virt. eigenvalues --    0.18083   0.23389   0.24614   0.26314   0.31168
 Alpha virt. eigenvalues --    0.31832   0.36593   0.44862   0.47313   0.60930

 Mulliken charges:
               1
     1  O   -0.347137
     2  H    0.173569
     3  H    0.173569
 Sum of Mulliken charges =  -0.00000

 Dipole moment (field-independent basis, Debye):
    X=             -0.0000    Y=              0.0000    Z=             -1.8096  Tot=              1.8096
 Quadrupole moment (field-independent basis, Debye-Ang):
   XX=             -7.4565   YY=             -4.0393   ZZ=             -6.4329
   XY=              0.0000   XZ=              0.0000   YZ=              0.0000

 3279735\CCSD=-76.3275479\CCSD(T)=-76.335673\RMSD=2.154e-09\PG=C02V [C2
 Normal termination of Gaussian 16 at Wed Feb  8 13:48:28 2023.
