 Gaussian 16, Revision C.01,
 Gaussian 16:  ES64L-G16RevC.01  3-Jul-2019

 ------------------------------
 #P HF/6-31g* scf(maxcycle=200)
 ------------------------------

 --------------
 Gaussian input
 --------------
 Symbolic Z-matrix:
 Charge =  0 Multiplicity = 1

                         Standard orientation:
 ---------------------------------------------------------------------
 Center     Atomic      Atomic             Coordinates (Angstroms)
 Number     Number       Type             X           Y           Z
 ---------------------------------------------------------------------
      1          8           0       -0.000000   -0.000000    0.149435
      2          1           0        0.000000    0.678092   -0.597741
      3          1           0       -0.000000   -0.678092   -0.597741
 ---------------------------------------------------------------------

 SCF Done:  E(RHF) =  -75.9922410436     A.U. after   10 cycles

 The electronic state is 1-A1.
 Alpha  occ. eigenvalues --  -20.58077  -1.33409  -0.64136  -0.60274  -0.50269
 Alpha virt. eigenvalues --    0.19323   0.28464   0.94396   1.11755   1.15311
 Alpha virt. eigenvalues --    1.16217   1.34877   1.50562   2.00339   2.05384
 Alpha virt. eigenvalues --    2.05984   2.63331   2.76570   3.90310

 Mulliken charges:
               1
     1  O   -0.822585
     2  H    0.411292
     3  H    0.411292
 Sum of Mulliken charges =   0.00000

 Dipole moment (field-independent basis, Debye):
    X=             -0.0000    Y=             -0.0000    Z=             -2.5872  Tot=              2.5872
 Quadrupole moment (field-independent basis, Debye-Ang):
   XX=             -7.3379   YY=             -5.0485   ZZ=             -5.3952
   XY=              0.0000   XZ=              0.0000   YZ=              0.0000

 Normal termination of Gaussian 16 at Wed Feb  8 15:07:24 2023.
