 Gaussian 16, Revision C.01,
 Gaussian 16:  ES64L-G16RevC.01  3-Jul-2019

 ------------------------------
 #P HF/6-31g* scf(maxcycle=200)
 ------------------------------

 --------------
 Gaussian input
 --------------
 Symbolic Z-matrix:
 Charge =  0 Multiplicity = 1

                         Standard orientation:
 ---------------------------------------------------------------------
 Center     Atomic      Atomic             Coordinates (Angstroms)
 Number     Number       Type             X           Y           Z
 ---------------------------------------------------------------------
      1          8           0        0.000000    0.125491    0.000000
      2          1           0        0.722938   -0.578385   -0.000000
      3          1           0       -0.722938   -0.425546   -0.000000
 ---------------------------------------------------------------------

 SCF Done:  E(RHF) =  -76.0040050160     A.U. after   10 cycles

 The electronic state is 1-A'.
 Alpha  occ. eigenvalues --  -20.56372  -1.34887  -0.69532  -0.58228  -0.50053
 Alpha virt. eigenvalues --    0.20664   0.30382   0.98916   1.13161   1.16606
 Alpha virt. eigenvalues --    1.20065   1.38278   1.45930   2.00353   2.03756
 Alpha virt. eigenvalues --    2.06193   2.60611   2.94990   3.95924

 Mulliken charges:
               1
     1  O   -0.851742
     2  H    0.419812
     3  H    0.431930
 Sum of Mulliken charges =  -0.00000

 Dipole moment (field-independent basis, Debye):
    X=             -0.0889    Y=             -2.3263    Z=             -0.0000  Tot=              2.3280
 Quadrupole moment (field-independent basis, Debye-Ang):
   XX=             -4.4274   YY=             -5.7872   ZZ=             -7.2295
   XY=             -0.2163   XZ=              0.0000   YZ=              0.0000

 Normal termination of Gaussian 16 at Wed Feb  8 15:06:51 2023.
