 Gaussian 16, Revision C.01,
 Gaussian 16:  ES64L-G16RevC.01  3-Jul-2019

 ------------------------------
 #P HF/6-31g* scf(maxcycle=200)
 ------------------------------

 --------------
 Gaussian input
 --------------
 Symbolic Z-matrix:
 Charge =  0 Multiplicity = 1

                         Standard orientation:
 ---------------------------------------------------------------------
 Center     Atomic      Atomic             Coordinates (Angstroms)
 Number     Number       Type             X           Y           Z
 ---------------------------------------------------------------------
      1          8           0        0.000000   -0.000000    0.103829
      2          1           0        0.000000    0.806330   -0.415317
      3          1           0       -0.000000   -0.806330   -0.415317
 ---------------------------------------------------------------------

 SCF Done:  E(RHF) =  -76.0080659057     A.U. after   10 cycles

 The electronic state is 1-A1.
 Alpha  occ. eigenvalues --  -20.55456  -1.33252  -0.72284  -0.55033  -0.49342
 Alpha virt. eigenvalues --    0.21072   0.30457   1.07417   1.09131   1.15936
 Alpha virt. eigenvalues --    1.17086   1.39020   1.40299   2.02674   2.04970
 Alpha virt. eigenvalues --    2.07973   2.64723   2.92944   3.98699

 Mulliken charges:
               1
     1  O   -0.887310
     2  H    0.443655
     3  H    0.443655
 Sum of Mulliken charges =  -0.00000

 Dipole moment (field-independent basis, Debye):
    X=             -0.0000    Y=              0.0000    Z=             -2.0440  Tot=              2.0440
 Quadrupole moment (field-independent basis, Debye-Ang):
   XX=             -7.2307   YY=             -3.6699   ZZ=             -6.2422
   XY=              0.0000   XZ=              0.0000   YZ=              0.0000

 Normal termination of Gaussian 16 at Wed Feb  8 15:06:10 2023.
