 Gaussian 16, Revision C.01,
 Gaussian 16:  ES64L-G16RevC.01  3-Jul-2019

 ----------------------------------------
 #P PBE1PBE/aug-cc-pVDZ scf(maxcycle=200)
 ----------------------------------------

 --------------
 Gaussian input
 --------------
 Symbolic Z-matrix:
 Charge =  0 Multiplicity = 1

                         Standard orientation:
 ---------------------------------------------------------------------
 Center     Atomic      Atomic             Coordinates (Angstroms)
 Number     Number       Type             X           Y           Z
 ---------------------------------------------------------------------
      1          8           0       -0.000000    0.000000    0.131794
      2          1           0       -0.000000    0.764096   -0.527174
      3          1           0       -0.000000   -0.764096   -0.527174
 ---------------------------------------------------------------------

 SCF Done:  E(RPBE1PBE) =  -76.3556627997     A.U. after    8 cycles

 The electronic state is 1-A1.
 Alpha  occ. eigenvalues --  -19.24038  -1.03124  -0.52211  -0.41811  -0.33047
 Alpha virt. eigenvalues --   -0.01701   0.03071   0.10870   0.13327   0.14112
 Alpha virt. eigenvalues --    0.15161   0.18480   0.24064   0.28677   0.29066
 Alpha virt. eigenvalues --    0.31834   0.45083   0.50011   0.52240   0.62459

 Mulliken charges:
               1
     1  O   -0.317641
     2  H    0.158821
     3  H    0.158821
 Sum of Mulliken charges =  -0.00000

 Dipole moment (field-independent basis, Debye):
    X=             -0.0000    Y=             -0.0000    Z=             -1.9777  Tot=              1.9777
 Quadrupole moment (field-independent basis, Debye-Ang):
   XX=             -7.8557   YY=             -4.6407   ZZ=             -6.2687
   XY=              0.0000   XZ=              0.0000   YZ=              0.0000

 Normal termination of Gaussian 16 at Wed Mar 29 21:53:44 2023.
