 Gaussian 16, Revision C.01,
 Gaussian 16:  ES64L-G16RevC.01  3-Jul-2019

 ----------------------------------------
 #P CCSD(T)/aug-cc-pVTZ scf(maxcycle=200)
 ----------------------------------------

 --------------
 Gaussian input
 --------------
 Symbolic Z-matrix:
 Charge =  0 Multiplicity = 1

                         Standard orientation:
 ---------------------------------------------------------------------
 Center     Atomic      Atomic             Coordinates (Angstroms)
 Number     Number       Type             X           Y           Z
 ---------------------------------------------------------------------
      1          8           0        0.000000    0.106619    0.000000
      2          1           0        0.826173   -0.380330    0.000000
      3          1           0       -0.826173   -0.472621    0.000000
 ---------------------------------------------------------------------

 SCF Done:  E(RHF) =  -76.0541848111     A.U. after   10 cycles
 E2 =    -0.2699568857D+00 EUMP2 =    -0.76324141696806D+02
 CCSD(T)
 CCSD(T)= -0.76337504907D+02

 The electronic state is 1-A'.
 Alpha  occ. eigenvalues --  -20.56679  -1.33426  -0.72054  -0.56079  -0.50504
 Alpha virt. eigenvalues --    0.02960   0.04697   0.13701   0.15821   0.17099
 Alpha virt. eigenvalues --    0.18078   0.22849   0.24234   0.26134   0.31019
 Alpha virt. eigenvalues --    0.31700   0.36388   0.42912   0.46328   0.60488

 Mulliken charges:
               1
     1  O   -0.480703
     2  H    0.221297
     3  H    0.259406
 Sum of Mulliken charges =  -0.00000

 Dipole moment (field-independent basis, Debye):
    X=              0.0147    Y=             -1.8298    Z=              0.0000  Tot=              1.8299
 Quadrupole moment (field-independent basis, Debye-Ang):
   XX=             -3.7357   YY=             -6.5586   ZZ=             -7.6390
   XY=              0.1810   XZ=              0.0000   YZ=              0.0000

 291506\CCSD=-76.3286477\CCSD(T)=-76.3375049\RMSD=4.464e-09\PG=CS [SG(H
 Normal termination of Gaussian 16 at Wed Feb  8 13:54:33 2023.
