 Gaussian 16, Revision C.01,
 Gaussian 16:  ES64L-G16RevC.01  3-Jul-2019

 ------------------------------------
 #P wB97XD/6-311g** scf(maxcycle=200)
 ------------------------------------

 --------------
 Gaussian input
 --------------
 Symbolic Z-matrix:
 Charge =  0 Multiplicity = 1

                         Standard orientation:
 ---------------------------------------------------------------------
 Center     Atomic      Atomic             Coordinates (Angstroms)
 Number     Number       Type             X           Y           Z
 ---------------------------------------------------------------------
      1          8           0        0.000000   -0.000000    0.098138
      2          1           0        0.000000    0.823957   -0.392552
      3          1           0       -0.000000   -0.823957   -0.392552
 ---------------------------------------------------------------------

 SCF Done:  E(RwB97XD) =  -76.4187754201     A.U. after   12 cycles

 The electronic state is 1-A1.
 Alpha  occ. eigenvalues --  -19.21803  -1.09183  -0.63196  -0.43560  -0.38200
 Alpha virt. eigenvalues --    0.12102   0.19272   0.46589   0.49537   0.85057
 Alpha virt. eigenvalues --    0.85750   0.94452   1.15050   1.31503   1.52112
 Alpha virt. eigenvalues --    1.61359   1.65601   2.09359   2.09423   2.46874

 Mulliken charges:
               1
     1  O   -0.536940
     2  H    0.268470
     3  H    0.268470
 Sum of Mulliken charges =  -0.00000

 Dipole moment (field-independent basis, Debye):
    X=             -0.0000    Y=             -0.0000    Z=             -1.8739  Tot=              1.8739
 Quadrupole moment (field-independent basis, Debye-Ang):
   XX=             -7.1858   YY=             -3.6142   ZZ=             -6.3860
   XY=              0.0000   XZ=              0.0000   YZ=              0.0000

 Normal termination of Gaussian 16 at Wed Feb  8 14:41:38 2023.
