 Gaussian 16, Revision C.01,
 Gaussian 16:  ES64L-G16RevC.01  3-Jul-2019

 ------------------------------
 #P HF/6-31g* scf(maxcycle=200)
 ------------------------------

 --------------
 Gaussian input
 --------------
 Symbolic Z-matrix:
 Charge =  0 Multiplicity = 1

                         Standard orientation:
 ---------------------------------------------------------------------
 Center     Atomic      Atomic             Coordinates (Angstroms)
 Number     Number       Type             X           Y           Z
 ---------------------------------------------------------------------
      1          8           0        0.000000    0.000000    0.113855
      2          1           0       -0.000000    0.708667   -0.455419
      3          1           0       -0.000000   -0.708667   -0.455419
 ---------------------------------------------------------------------

 SCF Done:  E(RHF) =  -76.0067619286     A.U. after   10 cycles

 The electronic state is 1-A1.
 Alpha  occ. eigenvalues --  -20.55183  -1.37050  -0.73003  -0.58434  -0.50242
 Alpha virt. eigenvalues --    0.21990   0.31652   1.03440   1.13570   1.16699
 Alpha virt. eigenvalues --    1.24435   1.39912   1.44419   2.00128   2.02380
 Alpha virt. eigenvalues --    2.05659   2.68504   3.02915   3.99208

 Mulliken charges:
               1
     1  O   -0.861329
     2  H    0.430664
     3  H    0.430664
 Sum of Mulliken charges =   0.00000

 Dipole moment (field-independent basis, Debye):
    X=             -0.0000    Y=              0.0000    Z=             -2.2144  Tot=              2.2144
 Quadrupole moment (field-independent basis, Debye-Ang):
   XX=             -7.1248   YY=             -4.3109   ZZ=             -5.9049
   XY=              0.0000   XZ=              0.0000   YZ=             -0.0000

 Normal termination of Gaussian 16 at Wed Feb  8 15:04:40 2023.
