 Gaussian 16, Revision C.01,
 Gaussian 16:  ES64L-G16RevC.01  3-Jul-2019

 ------------------------------
 #P HF/6-31g* scf(maxcycle=200)
 ------------------------------

 --------------
 Gaussian input
 --------------
 Symbolic Z-matrix:
 Charge =  0 Multiplicity = 1

                         Standard orientation:
 ---------------------------------------------------------------------
 Center     Atomic      Atomic             Coordinates (Angstroms)
 Number     Number       Type             X           Y           Z
 ---------------------------------------------------------------------
      1          8           0        0.000000    0.123310    0.000000
      2          1           0        0.766259   -0.533141   -0.000000
      3          1           0       -0.766259   -0.453342    0.000000
 ---------------------------------------------------------------------

 SCF Done:  E(RHF) =  -76.0069277733     A.U. after   10 cycles

 The electronic state is 1-A'.
 Alpha  occ. eigenvalues --  -20.56672  -1.33073  -0.68909  -0.57009  -0.49713
 Alpha virt. eigenvalues --    0.20395   0.29662   0.99962   1.12407   1.15696
 Alpha virt. eigenvalues --    1.16720   1.37210   1.44135   2.02093   2.04130
 Alpha virt. eigenvalues --    2.07014   2.58416   2.90239   3.95330

 Mulliken charges:
               1
     1  O   -0.858124
     2  H    0.425398
     3  H    0.432726
 Sum of Mulliken charges =  -0.00000

 Dipole moment (field-independent basis, Debye):
    X=             -0.0439    Y=             -2.2820    Z=             -0.0000  Tot=              2.2824
 Quadrupole moment (field-independent basis, Debye-Ang):
   XX=             -4.1838   YY=             -5.9216   ZZ=             -7.2816
   XY=             -0.1232   XZ=             -0.0000   YZ=              0.0000

 Normal termination of Gaussian 16 at Wed Feb  8 15:07:12 2023.
