 Gaussian 16, Revision C.01,
 Gaussian 16:  ES64L-G16RevC.01  3-Jul-2019

 ----------------------------------------
 #P CCSD(T)/aug-cc-pVDZ scf(maxcycle=200)
 ----------------------------------------

 --------------
 Gaussian input
 --------------
 Symbolic Z-matrix:
 Charge =  0 Multiplicity = 1

                         Standard orientation:
 ---------------------------------------------------------------------
 Center     Atomic      Atomic             Coordinates (Angstroms)
 Number     Number       Type             X           Y           Z
 ---------------------------------------------------------------------
      1          8           0        0.000000    0.106619    0.000000
      2          1           0        0.826173   -0.380330    0.000000
      3          1           0       -0.826173   -0.472621    0.000000
 ---------------------------------------------------------------------

 SCF Done:  E(RHF) =  -76.0350988207     A.U. after   10 cycles
 E2 =    -0.2212589203D+00 EUMP2 =    -0.76256357740970D+02
 CCSD(T)
 CCSD(T)= -0.76269402698D+02

 The electronic state is 1-A'.
 Alpha  occ. eigenvalues --  -20.57647  -1.33725  -0.72221  -0.56127  -0.50416
 Alpha virt. eigenvalues --    0.03560   0.05690   0.17571   0.19695   0.21720
 Alpha virt. eigenvalues --    0.22891   0.28965   0.31468   0.37806   0.42048
 Alpha virt. eigenvalues --    0.44550   0.52474   0.63920   0.65670   0.82709

 Mulliken charges:
               1
     1  O   -0.383099
     2  H    0.162507
     3  H    0.220592
 Sum of Mulliken charges =   0.00000

 Dipole moment (field-independent basis, Debye):
    X=              0.0161    Y=             -1.8467    Z=              0.0000  Tot=              1.8467
 Quadrupole moment (field-independent basis, Debye-Ang):
   XX=             -3.7676   YY=             -6.5794   ZZ=             -7.6742
   XY=              0.1828   XZ=              0.0000   YZ=              0.0000

 42412\CCSD=-76.2640298\CCSD(T)=-76.2694027\RMSD=9.131e-09\PG=CS [SG(H2
 Normal termination of Gaussian 16 at Wed Feb  8 14:50:00 2023.
