 Gaussian 16, Revision C.01,
 Gaussian 16:  ES64L-G16RevC.01  3-Jul-2019

 ------------------------------------
 #P wB97XD/6-311g** scf(maxcycle=200)
 ------------------------------------

 --------------
 Gaussian input
 --------------
 Symbolic Z-matrix:
 Charge =  0 Multiplicity = 1

                         Standard orientation:
 ---------------------------------------------------------------------
 Center     Atomic      Atomic             Coordinates (Angstroms)
 Number     Number       Type             X           Y           Z
 ---------------------------------------------------------------------
      1          8           0        0.000000    0.000000    0.132693
      2          1           0        0.000000    0.692458   -0.530771
      3          1           0       -0.000000   -0.692458   -0.530771
 ---------------------------------------------------------------------

 SCF Done:  E(RwB97XD) =  -76.4198504872     A.U. after   11 cycles

 The electronic state is 1-A1.
 Alpha  occ. eigenvalues --  -19.23182  -1.11321  -0.58708  -0.48735  -0.38981
 Alpha virt. eigenvalues --    0.11531   0.19242   0.44869   0.53187   0.85331
 Alpha virt. eigenvalues --    0.85709   0.95802   1.16860   1.17591   1.39493
 Alpha virt. eigenvalues --    1.47656   1.83151   1.97482   2.17624   2.38587

 Mulliken charges:
               1
     1  O   -0.444409
     2  H    0.222205
     3  H    0.222205
 Sum of Mulliken charges =  -0.00000

 Dipole moment (field-independent basis, Debye):
    X=             -0.0000    Y=              0.0000    Z=             -2.2404  Tot=              2.2404
 Quadrupole moment (field-independent basis, Debye-Ang):
   XX=             -7.1607   YY=             -4.7429   ZZ=             -5.7093
   XY=              0.0000   XZ=              0.0000   YZ=             -0.0000

 Normal termination of Gaussian 16 at Wed Feb  8 14:41:31 2023.
